/*--------------------------------*- C++ -*----------------------------------*\
| =========                 |                                                 |
| \\      /  F ield         | OpenFOAM: The Open Source CFD Toolbox           |
|  \\    /   O peration     | Version:  2.1.x                                 |
|   \\  /    A nd           | Web:      www.OpenFOAM.org                      |
|    \\/     M anipulation  |                                                 |
\*---------------------------------------------------------------------------*/
FoamFile
{
    version     2.0;
    format      ascii;
    class       volScalarField;
    location    "0.5";
    object      T;
}
// * * * * * * * * * * * * * * * * * * * * * * * * * * * * * * * * * * * * * //

dimensions      [0 0 0 1 0 0 0];

internalField   nonuniform List<scalar> 
400
(
300.034
300.103
300.172
300.241
300.309
300.375
300.438
300.495
300.546
300.587
300.616
300.632
300.63
300.608
300.564
300.497
300.409
300.305
300.187
300.063
300.104
300.313
300.521
300.729
300.936
301.137
301.328
301.504
301.657
301.783
301.874
301.922
301.917
301.849
301.714
301.512
301.246
300.928
300.571
300.193
300.177
300.531
300.885
301.239
301.589
301.932
302.259
302.56
302.825
303.042
303.2
303.286
303.279
303.167
302.938
302.594
302.14
301.595
300.982
300.331
300.254
300.763
301.271
301.779
302.284
302.778
303.251
303.69
304.077
304.397
304.634
304.765
304.763
304.606
304.281
303.784
303.127
302.332
301.437
300.485
300.337
301.011
301.684
302.357
303.028
303.687
304.321
304.912
305.438
305.876
306.204
306.392
306.402
306.205
305.779
305.12
304.238
303.166
301.953
300.659
300.426
301.277
302.127
302.978
303.828
304.667
305.477
306.237
306.919
307.493
307.928
308.188
308.221
307.989
307.462
306.629
305.502
304.118
302.543
300.858
300.522
301.562
302.602
303.644
304.686
305.718
306.722
307.668
308.524
309.251
309.812
310.158
310.228
309.97
309.344
308.331
306.937
305.207
303.221
301.086
300.624
301.867
303.108
304.351
305.598
306.837
308.047
309.195
310.241
311.14
311.843
312.293
312.416
312.146
311.43
310.234
308.559
306.447
303.997
301.349
300.734
302.191
303.643
305.097
306.555
308.009
309.435
310.797
312.047
313.132
313.994
314.566
314.762
314.501
313.711
312.342
310.376
307.852
304.884
301.65
300.85
302.533
304.204
305.872
307.546
309.216
310.86
312.439
313.9
315.183
316.22
316.935
317.23
317.006
316.171
314.648
312.396
309.438
305.895
301.995
300.973
302.894
304.788
306.67
308.553
310.432
312.286
314.076
315.748
317.236
318.463
319.344
319.77
319.624
318.787
317.148
314.629
311.224
307.052
302.392
301.107
303.277
305.396
307.484
309.56
311.629
313.673
315.657
317.53
319.224
320.654
321.727
322.325
322.31
321.531
319.833
317.087
313.237
308.382
302.853
301.256
303.694
306.038
308.317
310.563
312.79
314.992
317.141
319.193
321.082
322.724
324.018
324.836
325.018
324.375
322.698
319.789
315.518
309.931
303.398
301.434
304.174
306.745
309.196
311.581
313.93
316.249
318.522
320.717
322.779
324.628
326.162
327.246
327.698
327.284
325.734
322.76
318.125
311.77
304.061
301.673
304.781
307.595
310.207
312.705
315.14
317.534
319.886
322.177
324.364
326.386
328.151
329.525
330.307
330.223
328.932
326.033
321.138
314.008
304.906
302.042
305.66
308.769
311.557
314.167
316.675
319.109
321.494
323.824
326.051
328.156
330.077
331.701
332.828
333.154
332.274
329.644
324.673
316.824
306.054
302.713
307.146
310.686
313.725
316.493
319.095
321.53
323.863
326.112
328.273
330.336
332.261
333.971
335.318
336.049
335.724
333.616
328.884
320.513
307.765
304.172
310.067
314.304
317.745
320.632
323.208
325.559
327.744
329.8
331.745
333.584
335.296
336.851
338.166
339.068
339.209
337.918
333.954
325.558
310.617
308.082
316.618
321.678
325.251
328.06
330.402
332.422
334.206
335.813
337.282
338.631
339.855
340.963
341.93
342.669
342.972
342.367
339.781
332.781
316.001
321.787
331.903
336.418
339.082
340.873
342.178
343.186
344.002
344.688
345.284
345.808
346.268
346.676
347.032
347.313
347.454
347.275
346.231
342.403
328.084
)
;

boundaryField
{
    movingWall
    {
        type            fixedValue;
        value           uniform 350;
    }
    fixedWalls
    {
        type            fixedValue;
        value           uniform 300;
    }
    frontAndBack
    {
        type            empty;
    }
}


// ************************************************************************* //
