/*--------------------------------*- C++ -*----------------------------------*\
| =========                 |                                                 |
| \\      /  F ield         | OpenFOAM: The Open Source CFD Toolbox           |
|  \\    /   O peration     | Version:  2.1.x                                 |
|   \\  /    A nd           | Web:      www.OpenFOAM.org                      |
|    \\/     M anipulation  |                                                 |
\*---------------------------------------------------------------------------*/
FoamFile
{
    version     2.0;
    format      ascii;
    class       volScalarField;
    location    "0.1";
    object      p;
}
// * * * * * * * * * * * * * * * * * * * * * * * * * * * * * * * * * * * * * //

dimensions      [0 2 -2 0 0 0 0];

internalField   nonuniform List<scalar> 
3875
(
19.7339
19.4274
19.2901
19.2071
19.0941
18.9724
18.8445
18.7264
18.6272
18.5162
18.4077
18.314
18.1971
18.0783
17.9843
17.8965
17.8075
17.7169
17.594
17.4806
17.3829
17.268
17.1623
17.0594
16.9554
16.8442
16.7392
16.649
16.5318
16.4099
16.2955
16.1792
16.0655
15.9651
15.852
15.7372
15.6392
15.5324
15.4283
15.3304
15.2333
15.1379
15.0249
14.9355
14.8655
14.8067
14.8034
14.9173
15.1645
15.5976
19.7324
19.4165
19.2786
19.1994
19.1059
18.9712
18.8433
18.7428
18.6303
18.5079
18.4052
18.3155
18.1969
18.0777
17.9851
17.9004
17.8132
17.7149
17.5879
17.4733
17.3855
17.2681
17.1502
17.0533
16.9558
16.8479
16.7467
16.6474
16.5319
16.419
16.2982
16.1809
16.0767
15.9576
15.8416
15.7411
15.6324
15.5281
15.4369
15.3279
15.2169
15.1149
15.0126
14.9272
14.8265
14.7301
14.6684
14.6951
14.8153
15.0299
19.7287
19.411
19.2776
19.1977
19.1031
18.9891
18.8522
18.7354
18.6353
18.5179
18.4144
18.3165
18.2003
18.0822
17.9815
17.9022
17.8016
17.6933
17.5872
17.4749
17.3771
17.2752
17.1591
17.0624
16.9617
16.845
16.743
16.6379
16.5228
16.4129
16.3043
16.1868
16.0719
15.9632
15.8484
15.7331
15.6306
15.5369
15.4302
15.3179
15.2073
15.0998
15.0018
14.8875
14.7409
14.5808
14.4333
14.2934
14.2031
14.1189
19.7304
19.4077
19.2654
19.183
19.0944
18.9831
18.8661
18.7572
18.6363
18.5182
18.4195
18.3143
18.2045
18.0864
17.9835
17.9008
17.8044
17.6872
17.5738
17.4689
17.3721
17.2705
17.1686
17.0705
16.9512
16.8328
16.7303
16.6331
16.526
16.421
16.3074
16.1855
16.0818
15.9635
15.839
15.733
15.6404
15.5344
15.4221
15.3158
15.2004
15.0835
14.9629
14.8324
14.6578
14.4338
14.1736
13.8174
13.389
12.8173
19.7334
19.4126
19.2681
19.1911
19.0991
18.9822
18.8749
18.7577
18.6357
18.5307
18.439
18.3264
18.2009
18.0842
17.973
17.8726
17.7789
17.6851
17.5781
17.4723
17.3751
17.2698
17.1692
17.064
16.9528
16.8431
16.734
16.6297
16.5272
16.4197
16.3054
16.1905
16.0744
15.9533
15.8399
15.7377
15.6413
15.5451
15.4374
15.3107
15.1857
15.0697
14.9455
14.8109
14.5875
14.3521
13.9981
13.5101
12.5677
11.0068
19.7139
19.4247
19.2886
19.2018
19.0987
18.9755
18.8485
18.7253
18.6184
18.5148
18.4193
18.3114
18.1974
18.083
17.9792
17.8915
17.8032
17.7137
17.5939
17.478
17.3874
17.274
17.16
17.0564
16.9515
16.8473
16.7456
16.6373
16.5232
16.4229
16.3136
16.1732
16.0516
15.9555
15.8609
15.7437
15.6265
15.5323
15.4438
15.3424
15.2348
15.1298
15.022
14.9369
14.8628
14.8034
14.8023
14.9181
15.1588
15.5973
19.7217
19.4243
19.2855
19.1928
19.0966
18.9705
18.8422
18.7307
18.6221
18.5113
18.409
18.3071
18.1964
18.0848
17.9853
17.8942
17.8093
17.7034
17.584
17.4805
17.3899
17.2742
17.1532
17.0541
16.9631
16.8472
16.7343
16.6374
16.5291
16.4255
16.3148
16.1787
16.0581
15.9538
15.8523
15.7385
15.6251
15.5313
15.4384
15.3451
15.24
15.1142
15.0094
14.9267
14.8167
14.7226
14.667
14.6964
14.8092
15.0286
19.7021
19.4042
19.2767
19.2019
19.1046
18.984
18.8576
18.734
18.6317
18.5192
18.4073
18.3134
18.1966
18.0773
17.9825
17.8933
17.8064
17.6951
17.5816
17.481
17.3811
17.2822
17.1644
17.0536
16.9532
16.8398
16.7333
16.6386
16.5413
16.4205
16.2988
16.1926
16.0813
15.9531
15.8369
15.7323
15.6346
15.5366
15.4318
15.3356
15.2167
15.0946
14.9947
14.8775
14.7334
14.5852
14.4244
14.301
14.1696
14.1548
19.7198
19.4031
19.2698
19.1901
19.0939
18.9806
18.8697
18.7568
18.6307
18.5215
18.4178
18.312
18.1948
18.0748
17.9796
17.888
17.8031
17.6986
17.5858
17.4792
17.3768
17.2709
17.1668
17.0645
16.9518
16.8343
16.7231
16.6265
16.5287
16.4224
16.3166
16.1951
16.0747
15.9538
15.8418
15.7342
15.626
15.5317
15.4305
15.3331
15.2145
15.0838
14.9516
14.8107
14.65
14.4259
14.1678
13.8086
13.3602
12.8564
19.7319
19.4113
19.2754
19.1929
19.0904
18.9809
18.8763
18.7516
18.6353
18.5312
18.4261
18.3165
18.1873
18.0731
17.975
17.8798
17.7857
17.6869
17.5868
17.4877
17.379
17.2695
17.1765
17.0672
16.955
16.8518
16.7294
16.6221
16.5308
16.4218
16.3065
16.1996
16.0716
15.9448
15.8371
15.7344
15.6322
15.5358
15.4313
15.327
15.1971
15.0617
14.943
14.8069
14.5842
14.3497
14.0039
13.5023
12.5983
10.9299
19.7274
19.4216
19.281
19.1909
19.0913
18.9825
18.8657
18.746
18.6165
18.5027
18.4078
18.3016
18.1947
18.0913
17.9874
17.8919
17.7991
17.7108
17.6104
17.4866
17.3788
17.2838
17.1613
17.0479
16.9562
16.8619
16.745
16.6338
16.5286
16.4173
16.3088
16.1763
16.0543
15.9536
15.8554
15.7521
15.6327
15.5351
15.4383
15.3334
15.2379
15.1311
15.0233
14.9362
14.8629
14.803
14.7965
14.903
15.1442
15.5876
19.7107
19.4249
19.2827
19.1872
19.1027
18.9887
18.86
18.7301
18.6129
18.5121
18.4058
18.2992
18.2038
18.0963
17.9907
17.8885
17.789
17.6965
17.5928
17.4875
17.3847
17.2884
17.1682
17.0527
16.9636
16.8504
16.7342
16.6443
16.5325
16.4159
16.3019
16.1767
16.0693
15.9561
15.8427
15.7353
15.6284
15.5414
15.4385
15.3358
15.2341
15.1178
15.0139
14.9225
14.813
14.7161
14.6616
14.6885
14.801
15.014
19.714
19.4219
19.2764
19.1858
19.1015
18.9876
18.873
18.7389
18.6181
18.5246
18.4096
18.2978
18.1966
18.0853
17.9821
17.8866
17.7941
17.7036
17.5949
17.4898
17.3855
17.2808
17.1731
17.0592
16.9548
16.8379
16.7311
16.6494
16.5497
16.4158
16.2938
16.1862
16.0717
15.9603
15.8539
15.732
15.6237
15.5338
15.4403
15.3286
15.2173
15.1127
14.9959
14.8698
14.7237
14.5737
14.4307
14.2928
14.182
14.1141
19.7197
19.4192
19.2755
19.189
19.1039
18.9869
18.8683
18.7373
18.6163
18.5186
18.4153
18.313
18.2073
18.0844
17.9796
17.8828
17.7918
17.6946
17.5919
17.4883
17.3792
17.2723
17.1629
17.069
16.9563
16.8333
16.7265
16.632
16.5354
16.4304
16.3152
16.1945
16.0665
15.9469
15.851
15.7366
15.6245
15.5316
15.4402
15.337
15.2156
15.0779
14.9458
14.8146
14.6318
14.4268
14.1773
13.8077
13.3657
12.8044
19.7312
19.4159
19.2792
19.2023
19.0976
18.984
18.8628
18.7363
18.6283
18.5262
18.4269
18.3072
18.1906
18.091
17.9834
17.8801
17.7843
17.6873
17.5959
17.4841
17.3734
17.2726
17.1705
17.0754
16.964
16.8439
16.7268
16.624
16.5336
16.4281
16.3205
16.2016
16.0691
15.9435
15.8386
15.7493
15.6371
15.5316
15.4239
15.3175
15.2012
15.0581
14.93
14.8024
14.5812
14.3514
13.9948
13.4963
12.5473
10.9699
19.7301
19.4162
19.2726
19.1866
19.0974
18.9914
18.8618
18.7402
18.6236
18.5101
18.4138
18.2988
18.1936
18.091
17.9826
17.8876
17.7913
17.6981
17.6088
17.496
17.3828
17.2782
17.1613
17.0516
16.9545
16.8579
16.7479
16.6442
16.5321
16.4109
16.2968
16.1713
16.0554
15.9477
15.8405
15.7365
15.6317
15.5388
15.4442
15.3461
15.2434
15.1376
15.0257
14.9253
14.8525
14.7975
14.7927
14.9002
15.1345
15.5771
19.7242
19.423
19.2751
19.1833
19.1022
18.9908
18.8561
18.7323
18.632
18.5267
18.404
18.2889
18.1912
18.0893
17.9888
17.885
17.7839
17.6927
17.5982
17.4911
17.3821
17.2856
17.1753
17.0595
16.9572
16.8539
16.74
16.6365
16.5372
16.4119
16.2901
16.1782
16.0705
15.948
15.8374
15.7327
15.6257
15.5357
15.4406
15.3392
15.2459
15.1353
15.0094
14.9049
14.8099
14.7211
14.6617
14.6882
14.7941
15.0087
19.7021
19.4069
19.2778
19.2005
19.1004
18.9823
18.8753
18.7469
18.6294
18.5241
18.4102
18.2976
18.1961
18.0886
17.9756
17.878
17.7849
17.6937
17.6037
17.4927
17.3783
17.2797
17.1696
17.0552
16.9514
16.8482
16.7442
16.6504
16.5373
16.4115
16.3058
16.1946
16.0681
15.9435
15.8308
15.7277
15.6305
15.547
15.4426
15.332
15.2152
15.0961
14.9916
14.8697
14.7278
14.5831
14.4223
14.3005
14.1598
14.1502
19.702
19.4043
19.2776
19.1967
19.1024
18.9974
18.8806
18.7402
18.6202
18.5171
18.4074
18.2979
18.1992
18.0844
17.973
17.8759
17.7831
17.6906
17.5919
17.4861
17.3832
17.2906
17.1727
17.0553
16.9477
16.8406
16.7374
16.6402
16.549
16.4283
16.3037
16.1892
16.067
15.9548
15.841
15.7293
15.6391
15.5351
15.4316
15.3323
15.2015
15.0784
14.9517
14.8063
14.6473
14.4248
14.1691
13.8051
13.3551
12.8519
19.7283
19.4127
19.2808
19.2037
19.1006
18.991
18.8703
18.743
18.6232
18.5159
18.409
18.2939
18.1922
18.0906
17.9902
17.8813
17.7791
17.6933
17.5903
17.4817
17.3895
17.283
17.1703
17.0672
16.9471
16.834
16.7354
16.6389
16.5494
16.441
16.3171
16.189
16.0577
15.942
15.8372
15.7347
15.6432
15.5351
15.4272
15.3157
15.1839
15.0593
14.9305
14.7994
14.5886
14.3505
14.0083
13.5001
12.6037
10.9294
19.7367
19.4236
19.2854
19.2059
19.1019
18.97
18.8411
18.732
18.6299
18.5198
18.4085
18.2971
18.191
18.0894
17.9886
17.8957
17.8043
17.7017
17.6025
17.5023
17.3827
17.2665
17.1659
17.0606
16.9613
16.8736
16.7628
16.6408
16.5122
16.3944
16.2876
16.1761
16.0699
15.9463
15.8296
15.7333
15.6355
15.5433
15.4502
15.3402
15.2408
15.1455
15.0315
14.9262
14.8373
14.7821
14.7881
14.9028
15.1375
15.5731
19.7338
19.4184
19.2818
19.2032
19.093
18.9676
18.849
18.7399
18.6424
18.5269
18.4107
18.2964
18.1852
18.0855
17.9851
17.8953
17.7924
17.6902
17.6042
17.5016
17.3864
17.2723
17.1599
17.0567
16.964
16.8621
16.7494
16.6445
16.5367
16.4167
16.2922
16.1745
16.0625
15.9361
15.8264
15.7291
15.6298
15.5351
15.4381
15.3366
15.2418
15.1364
15.0149
14.9048
14.7948
14.7123
14.6636
14.6938
14.8029
15.0091
19.7303
19.416
19.2838
19.2006
19.0929
18.978
18.8628
18.7543
18.6353
18.5211
18.4142
18.3009
18.196
18.083
17.9745
17.8796
17.7831
17.6899
17.6003
17.5065
17.3905
17.2814
17.1699
17.0515
16.9506
16.8602
16.758
16.6474
16.5318
16.4171
16.3141
16.1902
16.064
15.9377
15.8282
15.7261
15.6232
15.5302
15.4332
15.3304
15.2247
15.106
14.9911
14.8771
14.7318
14.5835
14.4238
14.2968
14.1866
14.1294
19.7302
19.4158
19.2838
19.2014
19.104
18.9937
18.864
18.7439
18.6233
18.5086
18.4117
18.3028
18.1932
18.0909
17.9781
17.8716
17.7794
17.688
17.5932
17.4938
17.3899
17.2917
17.1737
17.0512
16.9496
16.8553
16.7445
16.6378
16.5462
16.4323
16.3049
16.1889
16.0661
15.9393
15.8302
15.7386
15.6386
15.5263
15.4223
15.3198
15.2156
15.088
14.9598
14.8198
14.6474
14.432
14.1771
13.8211
13.376
12.8448
19.7347
19.4193
19.2829
19.2073
19.1146
18.9869
18.8646
18.7475
18.6269
18.512
18.403
18.3017
18.1985
18.0935
17.9785
17.8681
17.7766
17.6876
17.5896
17.4891
17.3908
17.2934
17.172
17.0512
16.9474
16.8453
16.7418
16.6425
16.5547
16.4382
16.3132
16.1972
16.0674
15.9451
15.83
15.7288
15.6424
15.529
15.4177
15.3187
15.1902
15.0573
14.9369
14.8021
14.5885
14.3524
14.0029
13.5001
12.5812
11.0226
16.0407
16.0805
16.063
16.171
16.4401
15.31
15.6109
15.9473
16.332
16.6422
14.2258
14.6684
15.356
16.0494
16.5573
12.653
13.2243
14.3486
15.1111
15.6792
8.04995
10.3673
12.5581
13.5029
14.0549
16.0412
16.0802
16.0539
16.182
16.4723
15.2892
15.5828
15.9227
16.3661
16.7258
14.1663
14.6191
15.3536
16.0942
16.678
12.6598
13.1479
14.3323
15.165
15.7978
8.08481
10.3697
12.53
13.5494
14.1765
16.0389
16.0825
16.0608
16.205
16.5062
15.2692
15.5708
15.9294
16.4089
16.7704
14.1757
14.6233
15.3551
16.1292
16.7228
12.6443
13.1803
14.3416
15.1824
15.8192
8.01227
10.3867
12.5593
13.5662
14.1525
16.0284
16.0671
16.0576
16.2227
16.5342
15.2636
15.5591
15.9294
16.4016
16.7668
14.1555
14.6065
15.3498
16.1028
16.6885
12.6352
13.1416
14.3188
15.1518
15.7798
8.05354
10.3778
12.5152
13.5302
14.1566
16.0229
16.0603
16.0662
16.2273
16.5097
15.2794
15.5781
15.9533
16.3724
16.6973
14.2039
14.6369
15.3418
16.0502
16.5598
12.6728
13.2122
14.3119
15.0698
15.6239
8.14406
10.4368
12.5394
13.4357
13.9769
16.2423
16.2423
16.2423
16.2423
16.2423
16.2423
16.2423
16.2423
16.2423
16.2423
16.2423
16.2423
16.2423
16.2423
16.2423
16.2423
16.2423
16.2423
16.2423
16.2423
16.2423
16.2423
16.2423
16.2423
16.2423
16.2423
16.2423
16.2423
16.2423
16.2423
16.2423
16.2423
16.2423
16.2423
16.2423
16.2423
16.2423
16.2423
16.2423
16.2423
16.2423
16.2423
16.2423
16.2423
16.2423
16.2423
16.2423
16.2423
16.2423
16.2423
16.2423
16.2423
16.2423
16.2423
16.2423
16.2423
16.2423
16.2423
16.2423
16.2423
16.2423
16.2423
16.2423
16.2423
16.2423
16.2423
16.2423
16.2423
16.2423
16.2423
16.2423
16.2423
16.2423
16.2423
16.2423
16.2423
16.2423
16.2423
16.2423
16.2423
16.2423
16.2423
16.2423
16.2423
16.2423
16.2423
16.2423
16.2423
16.2423
16.2423
16.2423
16.2423
16.2423
16.2423
16.2423
16.2423
16.2423
16.2423
16.2423
16.2423
16.2423
16.2423
16.2423
16.2423
16.2423
16.2423
16.2423
16.2423
16.2423
16.2423
16.2423
16.2423
16.2423
16.2423
16.2423
16.2423
16.2423
16.2423
16.2423
16.2423
16.2423
16.2423
16.2423
16.2423
16.2423
16.2423
16.2423
16.2423
16.2423
16.2423
16.2422
16.2422
16.2422
16.2422
16.2422
16.2422
16.2422
16.2422
16.2422
16.2422
16.2422
16.2422
16.2422
16.2422
16.2422
16.2422
16.2422
16.2422
16.2422
16.2422
16.2422
16.2422
16.2422
16.2422
16.2422
16.2422
16.2422
16.2422
16.2422
16.2422
16.2422
16.2422
16.2422
16.2422
16.2422
16.2422
16.2422
16.2422
16.2422
16.2422
16.2421
16.2421
16.2422
16.2422
16.2422
16.2421
16.2421
16.2422
16.2422
16.2422
16.242
16.2421
16.2422
16.2422
16.2423
16.2419
16.242
16.2421
16.2423
16.2424
16.2417
16.2418
16.2421
16.2424
16.2426
16.2413
16.2416
16.2421
16.2426
16.243
16.2406
16.2411
16.242
16.243
16.2436
16.2394
16.2403
16.2419
16.2437
16.2448
16.2372
16.2387
16.2415
16.2449
16.2469
16.2332
16.2356
16.2403
16.2466
16.2502
16.226
16.2293
16.2368
16.2484
16.2554
16.2135
16.2163
16.2258
16.2464
16.261
16.1938
16.1921
16.1964
16.2235
16.2495
16.1689
16.1577
16.1363
16.1499
16.2024
16.1413
16.1232
16.0694
16.0483
16.1634
16.1188
16.0994
16.0344
15.9987
16.2394
16.2423
16.2423
16.2423
16.2423
16.2423
16.2423
16.2423
16.2423
16.2423
16.2423
16.2423
16.2423
16.2423
16.2423
16.2423
16.2423
16.2423
16.2423
16.2423
16.2423
16.2423
16.2423
16.2423
16.2423
16.2423
16.2423
16.2423
16.2423
16.2423
16.2423
16.2423
16.2423
16.2423
16.2423
16.2423
16.2423
16.2423
16.2423
16.2423
16.2423
16.2423
16.2423
16.2423
16.2423
16.2423
16.2423
16.2423
16.2423
16.2423
16.2423
16.2423
16.2423
16.2423
16.2423
16.2423
16.2423
16.2423
16.2423
16.2423
16.2423
16.2423
16.2423
16.2423
16.2423
16.2423
16.2423
16.2423
16.2423
16.2423
16.2423
16.2423
16.2423
16.2423
16.2423
16.2423
16.2423
16.2423
16.2423
16.2423
16.2423
16.2423
16.2423
16.2423
16.2423
16.2423
16.2423
16.2423
16.2423
16.2423
16.2423
16.2423
16.2423
16.2423
16.2423
16.2423
16.2423
16.2423
16.2423
16.2423
16.2423
16.2423
16.2423
16.2423
16.2423
16.2423
16.2423
16.2423
16.2423
16.2423
16.2423
16.2423
16.2423
16.2423
16.2423
16.2423
16.2423
16.2423
16.2423
16.2423
16.2423
16.2423
16.2423
16.2423
16.2423
16.2423
16.2423
16.2423
16.2423
16.2423
16.2423
16.2422
16.2422
16.2422
16.2422
16.2422
16.2422
16.2422
16.2422
16.2422
16.2422
16.2422
16.2422
16.2422
16.2422
16.2422
16.2422
16.2422
16.2422
16.2422
16.2422
16.2422
16.2422
16.2422
16.2422
16.2422
16.2422
16.2422
16.2422
16.2422
16.2422
16.2422
16.2422
16.2422
16.2422
16.2422
16.2422
16.2422
16.2422
16.2422
16.2422
16.2421
16.2421
16.2422
16.2422
16.2422
16.2421
16.2421
16.2422
16.2422
16.2422
16.242
16.2421
16.2422
16.2422
16.2423
16.2419
16.242
16.2421
16.2423
16.2424
16.2417
16.2418
16.2421
16.2424
16.2426
16.2413
16.2416
16.2421
16.2426
16.243
16.2406
16.2411
16.242
16.243
16.2436
16.2394
16.2403
16.2419
16.2437
16.2448
16.2372
16.2387
16.2415
16.2449
16.2469
16.2331
16.2355
16.2402
16.2466
16.2503
16.2258
16.229
16.2364
16.2479
16.2557
16.2132
16.2156
16.2243
16.2438
16.261
16.193
16.1906
16.1919
16.2137
16.2476
16.1678
16.1567
16.1317
16.1349
16.1971
16.1409
16.123
16.0697
16.0352
16.1579
16.1187
16.099
16.0375
15.9907
16.2388
16.2423
16.2423
16.2423
16.2423
16.2423
16.2423
16.2423
16.2423
16.2423
16.2423
16.2423
16.2423
16.2423
16.2423
16.2423
16.2423
16.2423
16.2423
16.2423
16.2423
16.2423
16.2423
16.2423
16.2423
16.2423
16.2423
16.2423
16.2423
16.2423
16.2423
16.2423
16.2423
16.2423
16.2423
16.2423
16.2423
16.2423
16.2423
16.2423
16.2423
16.2423
16.2423
16.2423
16.2423
16.2423
16.2423
16.2423
16.2423
16.2423
16.2423
16.2423
16.2423
16.2423
16.2423
16.2423
16.2423
16.2423
16.2423
16.2423
16.2423
16.2423
16.2423
16.2423
16.2423
16.2423
16.2423
16.2423
16.2423
16.2423
16.2423
16.2423
16.2423
16.2423
16.2423
16.2423
16.2423
16.2423
16.2423
16.2423
16.2423
16.2423
16.2423
16.2423
16.2423
16.2423
16.2423
16.2423
16.2423
16.2423
16.2423
16.2423
16.2423
16.2423
16.2423
16.2423
16.2423
16.2423
16.2423
16.2423
16.2423
16.2423
16.2423
16.2423
16.2423
16.2423
16.2423
16.2423
16.2423
16.2423
16.2423
16.2423
16.2423
16.2423
16.2423
16.2423
16.2423
16.2423
16.2423
16.2423
16.2423
16.2423
16.2423
16.2423
16.2423
16.2423
16.2423
16.2423
16.2423
16.2423
16.2423
16.2422
16.2422
16.2422
16.2422
16.2422
16.2422
16.2422
16.2422
16.2422
16.2422
16.2422
16.2422
16.2422
16.2422
16.2422
16.2422
16.2422
16.2422
16.2422
16.2422
16.2422
16.2422
16.2422
16.2422
16.2422
16.2422
16.2422
16.2422
16.2422
16.2422
16.2422
16.2422
16.2422
16.2422
16.2422
16.2422
16.2422
16.2422
16.2422
16.2422
16.2421
16.2421
16.2422
16.2422
16.2422
16.2421
16.2421
16.2422
16.2422
16.2422
16.242
16.2421
16.2422
16.2422
16.2423
16.2419
16.242
16.2421
16.2423
16.2424
16.2417
16.2418
16.2421
16.2424
16.2426
16.2413
16.2416
16.2421
16.2426
16.243
16.2406
16.2411
16.242
16.243
16.2436
16.2394
16.2403
16.2418
16.2437
16.2448
16.2371
16.2386
16.2414
16.2448
16.2468
16.233
16.2353
16.24
16.2464
16.2503
16.2255
16.2287
16.2359
16.2475
16.2556
16.2126
16.2149
16.2232
16.2424
16.2607
16.192
16.1894
16.1895
16.2098
16.2462
16.1664
16.1553
16.1288
16.1288
16.1929
16.1394
16.1215
16.0679
16.0289
16.1538
16.1169
16.0976
16.0351
15.9926
16.2456
16.2423
16.2423
16.2423
16.2423
16.2423
16.2423
16.2423
16.2423
16.2423
16.2423
16.2423
16.2423
16.2423
16.2423
16.2423
16.2423
16.2423
16.2423
16.2423
16.2423
16.2423
16.2423
16.2423
16.2423
16.2423
16.2423
16.2423
16.2423
16.2423
16.2423
16.2423
16.2423
16.2423
16.2423
16.2423
16.2423
16.2423
16.2423
16.2423
16.2423
16.2423
16.2423
16.2423
16.2423
16.2423
16.2423
16.2423
16.2423
16.2423
16.2423
16.2423
16.2423
16.2423
16.2423
16.2423
16.2423
16.2423
16.2423
16.2423
16.2423
16.2423
16.2423
16.2423
16.2423
16.2423
16.2423
16.2423
16.2423
16.2423
16.2423
16.2423
16.2423
16.2423
16.2423
16.2423
16.2423
16.2423
16.2423
16.2423
16.2423
16.2423
16.2423
16.2423
16.2423
16.2423
16.2423
16.2423
16.2423
16.2423
16.2423
16.2423
16.2423
16.2423
16.2423
16.2423
16.2423
16.2423
16.2423
16.2423
16.2423
16.2423
16.2423
16.2423
16.2423
16.2423
16.2423
16.2423
16.2423
16.2423
16.2423
16.2423
16.2423
16.2423
16.2423
16.2423
16.2423
16.2423
16.2423
16.2423
16.2423
16.2423
16.2423
16.2423
16.2423
16.2423
16.2423
16.2423
16.2423
16.2423
16.2423
16.2422
16.2422
16.2422
16.2422
16.2422
16.2422
16.2422
16.2422
16.2422
16.2422
16.2422
16.2422
16.2422
16.2422
16.2422
16.2422
16.2422
16.2422
16.2422
16.2422
16.2422
16.2422
16.2422
16.2422
16.2422
16.2422
16.2422
16.2422
16.2422
16.2422
16.2422
16.2422
16.2422
16.2422
16.2422
16.2422
16.2422
16.2422
16.2422
16.2422
16.2421
16.2421
16.2422
16.2422
16.2422
16.2421
16.2421
16.2422
16.2422
16.2422
16.242
16.2421
16.2421
16.2422
16.2423
16.2419
16.242
16.2421
16.2423
16.2424
16.2417
16.2418
16.2421
16.2424
16.2426
16.2413
16.2416
16.2421
16.2426
16.2429
16.2406
16.2411
16.242
16.243
16.2436
16.2393
16.2402
16.2418
16.2437
16.2448
16.237
16.2385
16.2413
16.2448
16.2468
16.2329
16.2352
16.2399
16.2464
16.2502
16.2253
16.2285
16.2359
16.2476
16.2557
16.2123
16.2146
16.2232
16.2429
16.2611
16.1913
16.1886
16.1893
16.2111
16.2471
16.1652
16.1533
16.1262
16.1284
16.1934
16.1371
16.1177
16.0596
16.0239
16.1552
16.1135
16.0929
16.0213
15.9883
16.2625
16.2423
16.2423
16.2423
16.2423
16.2423
16.2423
16.2423
16.2423
16.2423
16.2423
16.2423
16.2423
16.2423
16.2423
16.2423
16.2423
16.2423
16.2423
16.2423
16.2423
16.2423
16.2423
16.2423
16.2423
16.2423
16.2423
16.2423
16.2423
16.2423
16.2423
16.2423
16.2423
16.2423
16.2423
16.2423
16.2423
16.2423
16.2423
16.2423
16.2423
16.2423
16.2423
16.2423
16.2423
16.2423
16.2423
16.2423
16.2423
16.2423
16.2423
16.2423
16.2423
16.2423
16.2423
16.2423
16.2423
16.2423
16.2423
16.2423
16.2423
16.2423
16.2423
16.2423
16.2423
16.2423
16.2423
16.2423
16.2423
16.2423
16.2423
16.2423
16.2423
16.2423
16.2423
16.2423
16.2423
16.2423
16.2423
16.2423
16.2423
16.2423
16.2423
16.2423
16.2423
16.2423
16.2423
16.2423
16.2423
16.2423
16.2423
16.2423
16.2423
16.2423
16.2423
16.2423
16.2423
16.2423
16.2423
16.2423
16.2423
16.2423
16.2423
16.2423
16.2423
16.2423
16.2423
16.2423
16.2423
16.2423
16.2423
16.2423
16.2423
16.2423
16.2423
16.2423
16.2423
16.2423
16.2423
16.2423
16.2423
16.2423
16.2423
16.2423
16.2423
16.2423
16.2423
16.2423
16.2423
16.2423
16.2423
16.2422
16.2422
16.2422
16.2422
16.2422
16.2422
16.2422
16.2422
16.2422
16.2422
16.2422
16.2422
16.2422
16.2422
16.2422
16.2422
16.2422
16.2422
16.2422
16.2422
16.2422
16.2422
16.2422
16.2422
16.2422
16.2422
16.2422
16.2422
16.2422
16.2422
16.2422
16.2422
16.2422
16.2422
16.2422
16.2422
16.2422
16.2422
16.2422
16.2422
16.2421
16.2421
16.2422
16.2422
16.2422
16.2421
16.2421
16.2422
16.2422
16.2422
16.242
16.2421
16.2421
16.2422
16.2423
16.2419
16.242
16.2421
16.2423
16.2424
16.2417
16.2418
16.2421
16.2424
16.2426
16.2413
16.2416
16.2421
16.2426
16.2429
16.2406
16.2411
16.242
16.243
16.2436
16.2393
16.2402
16.2418
16.2436
16.2447
16.237
16.2385
16.2413
16.2447
16.2467
16.2328
16.2352
16.2399
16.2463
16.25
16.2252
16.2284
16.236
16.2477
16.255
16.212
16.2147
16.224
16.2447
16.2604
16.1911
16.1889
16.1922
16.2196
16.2482
16.1647
16.1524
16.1277
16.1402
16.1956
16.135
16.1146
16.0533
16.0318
16.1575
16.1106
16.0892
16.0078
15.9938
16.2721
-0.19716
6.06319
9.25259
10.9099
11.7746
0.849458
2.76093
5.9125
7.99222
9.09892
1.18149
1.38495
3.84141
5.74393
6.68833
1.21778
1.30112
3.149
4.446
5.08539
1.53576
1.68975
3.04841
3.85967
4.26046
2.16888
2.31946
3.2107
3.67589
4.02273
2.95523
3.04586
3.53737
3.77194
4.0801
3.64643
3.67955
3.87663
3.94237
4.1362
4.16174
4.13263
4.13617
4.0962
4.19453
4.44889
4.37906
4.29218
4.21779
4.26036
4.54206
4.45858
4.35585
4.27952
4.2937
4.5179
4.43805
4.34691
4.28154
4.28204
4.44388
4.36351
4.28274
4.23951
4.23115
4.33529
4.26293
4.1925
4.16603
4.15063
4.20486
4.14612
4.09913
4.07075
4.06129
4.06932
4.02265
3.98182
3.95947
3.94787
3.93087
3.89356
3.85026
3.82626
3.81418
3.78861
3.75447
3.73813
3.6762
3.6858
3.65406
3.62484
3.59734
3.54504
3.55668
3.52419
3.50626
3.46691
3.43566
3.42888
3.38737
3.37931
3.3664
3.33553
3.29308
3.24934
3.23319
3.23943
3.19637
3.16639
3.11648
3.09224
3.08922
3.06114
3.06071
2.99261
2.97964
2.96604
2.96055
2.96452
2.86681
2.85551
2.84739
2.86578
2.85568
2.74261
2.72996
2.72943
2.7439
2.73534
2.62613
2.62808
2.6286
2.62049
2.61269
2.5043
2.5063
2.49241
2.48622
2.48299
2.37385
2.36871
2.35085
2.34963
2.36098
2.24204
2.23169
2.23118
2.23783
2.25887
2.12106
2.11194
2.13413
2.14183
2.14567
2.00925
2.00782
2.03029
2.03881
2.02555
1.89593
1.89131
1.88951
1.90406
1.89074
1.78121
1.77585
1.75809
1.75997
1.75967
1.66864
1.67217
1.65418
1.64741
1.65031
1.55551
1.55688
1.55182
1.55956
1.54693
1.44669
1.44943
1.4456
1.44284
1.44187
1.33811
1.34048
1.34665
1.32811
1.33109
1.23664
1.2287
1.23579
1.22363
1.22627
1.14168
1.13061
1.12542
1.12596
1.1271
1.04005
1.03373
1.02732
1.03613
1.03262
0.93354
0.932058
0.927284
0.930257
0.939027
0.822614
0.827975
0.826045
0.823516
0.831426
0.70702
0.724425
0.727122
0.717279
0.719006
0.599392
0.621129
0.628072
0.616508
0.612339
0.495777
0.498573
0.504633
0.507416
0.510426
0.389673
0.386
0.385602
0.391399
0.408322
0.293841
0.292421
0.291618
0.289866
0.292511
0.20146
0.20054
0.20111
0.195638
0.187933
0.0836973
0.0837495
0.0843833
0.0819544
0.0792501
-0.418597
6.07916
9.24501
10.9569
11.8844
0.835619
2.71418
5.8549
8.02299
9.20005
1.18932
1.3902
3.7891
5.75519
6.76355
1.22842
1.31157
3.10691
4.43917
5.1307
1.55281
1.68412
3.01135
3.84781
4.28381
2.17693
2.31041
3.17824
3.66715
4.04333
2.95576
3.04002
3.52219
3.76413
4.08591
3.64846
3.68089
3.87171
3.93153
4.13229
4.1625
4.13577
4.13282
4.08276
4.19081
4.44606
4.37874
4.29025
4.20669
4.25566
4.53686
4.45673
4.3505
4.26476
4.28763
4.51016
4.43509
4.34212
4.26469
4.27365
4.43467
4.36215
4.27996
4.21824
4.22249
4.33076
4.26014
4.17738
4.13358
4.14443
4.20292
4.14384
4.08362
4.04698
4.05265
4.06586
4.01917
3.97992
3.95811
3.94399
3.92479
3.88631
3.85037
3.8404
3.81772
3.78589
3.75644
3.731
3.71053
3.68875
3.65285
3.62925
3.59913
3.56834
3.54912
3.52058
3.50062
3.46386
3.43193
3.42234
3.38573
3.37369
3.35168
3.31954
3.29838
3.25112
3.24162
3.23754
3.18996
3.17034
3.1188
3.1052
3.09626
3.06804
3.06932
2.99185
2.9833
2.9794
2.9676
2.98328
2.86575
2.85959
2.86701
2.86277
2.86724
2.7411
2.72916
2.73255
2.74799
2.74405
2.6215
2.61083
2.61493
2.61932
2.62377
2.50182
2.50193
2.49888
2.47564
2.47928
2.37486
2.37552
2.36145
2.34983
2.35373
2.24361
2.23078
2.2301
2.25101
2.24375
2.12326
2.11013
2.12161
2.13782
2.13507
2.01113
2.00904
2.01342
2.01204
2.02648
1.89559
1.89452
1.90066
1.88744
1.88427
1.78036
1.78398
1.77599
1.75779
1.74846
1.66563
1.66383
1.65491
1.6494
1.64117
1.5535
1.54602
1.55183
1.55395
1.55686
1.4431
1.44486
1.44645
1.44984
1.46794
1.34123
1.34925
1.34037
1.33789
1.33908
1.23987
1.23906
1.2321
1.22324
1.21714
1.14001
1.13241
1.12624
1.11912
1.12367
1.04352
1.04084
1.02493
1.02115
1.02839
0.934793
0.938037
0.927295
0.924579
0.922122
0.816651
0.826096
0.826429
0.825596
0.819607
0.702536
0.710472
0.719316
0.728634
0.727792
0.605423
0.602269
0.613942
0.621433
0.614183
0.496335
0.50505
0.51309
0.505347
0.494756
0.391049
0.402963
0.3986
0.397091
0.395935
0.294869
0.293657
0.290411
0.291108
0.29609
0.198112
0.195768
0.202473
0.195271
0.198732
0.0848881
0.085364
0.0874301
0.0830617
0.082516
-0.369776
6.0979
9.25129
10.9597
11.845
0.850299
2.69382
5.85814
8.01608
9.14917
1.18328
1.39014
3.81567
5.75315
6.70393
1.22383
1.32668
3.13402
4.44834
5.09289
1.553
1.70784
3.02987
3.84339
4.25857
2.18372
2.32937
3.18901
3.65643
4.01105
2.96487
3.05572
3.53151
3.76173
4.06208
3.65516
3.69006
3.88058
3.93476
4.11146
4.16319
4.13922
4.14328
4.092
4.17616
4.44597
4.38182
4.2972
4.20984
4.24532
4.53651
4.4594
4.35642
4.27063
4.2824
4.50874
4.43684
4.34514
4.27165
4.27352
4.43198
4.36679
4.28981
4.22899
4.22682
4.33037
4.26858
4.20561
4.16444
4.15419
4.20531
4.14871
4.09786
4.06023
4.0543
4.06742
4.01535
3.97813
3.93945
3.94075
3.92479
3.87705
3.84447
3.8299
3.81727
3.786
3.74314
3.71749
3.694
3.66925
3.65338
3.62131
3.5893
3.55789
3.54894
3.52227
3.49747
3.46445
3.45133
3.454
3.39037
3.38103
3.36748
3.35344
3.33387
3.25685
3.24803
3.24909
3.21123
3.19016
3.12482
3.11695
3.09918
3.07132
3.07232
2.99511
2.9975
2.97723
2.96112
2.96414
2.86407
2.86076
2.8555
2.85799
2.84998
2.73901
2.7335
2.73234
2.74288
2.7301
2.61945
2.61657
2.63013
2.61444
2.60844
2.49978
2.49548
2.49587
2.47591
2.49323
2.37244
2.36178
2.36035
2.3441
2.35532
2.24385
2.23104
2.24072
2.23262
2.2342
2.12602
2.12068
2.12249
2.11572
2.13703
2.01318
2.0162
2.00108
2.00068
2.02058
1.89196
1.88697
1.88751
1.88607
1.88493
1.7738
1.76668
1.77242
1.7713
1.75623
1.65787
1.65518
1.65361
1.65821
1.63921
1.54906
1.54722
1.54693
1.56506
1.54502
1.44202
1.44565
1.4457
1.4703
1.45763
1.34007
1.34621
1.34878
1.3407
1.34315
1.24639
1.24585
1.24929
1.22086
1.2209
1.14502
1.14568
1.12976
1.11802
1.12076
1.04919
1.0371
1.02109
1.02564
1.03559
0.942657
0.928931
0.932383
0.933005
0.932313
0.825456
0.826613
0.83489
0.835901
0.824361
0.710602
0.710212
0.710238
0.720518
0.725735
0.596108
0.59953
0.59602
0.598516
0.602818
0.491684
0.500613
0.497824
0.494235
0.486301
0.402029
0.401291
0.392288
0.393758
0.393472
0.296868
0.298746
0.294899
0.297707
0.301067
0.194053
0.202375
0.210065
0.209954
0.208454
0.0857814
0.0875294
0.0911964
0.0895194
0.0872005
-0.333831
6.06124
9.23461
10.9354
11.8699
0.828825
2.68547
5.85012
8.00705
9.18496
1.17167
1.36033
3.79473
5.74507
6.75479
1.20456
1.29492
3.12795
4.43753
5.12906
1.53124
1.68969
3.03538
3.84802
4.28548
2.1721
2.32541
3.19892
3.67162
4.05295
2.97037
3.06317
3.53725
3.7676
4.09386
3.66352
3.69756
3.87993
3.93333
4.13778
4.16958
4.14231
4.13671
4.08736
4.19366
4.45038
4.38126
4.28961
4.20225
4.25503
4.53895
4.45572
4.34607
4.26107
4.28458
4.51044
4.43322
4.33373
4.24816
4.26684
4.4343
4.36267
4.27661
4.19704
4.22077
4.33258
4.26399
4.19464
4.14522
4.15006
4.20536
4.13788
4.09195
4.06546
4.03802
4.0644
4.01062
3.97258
3.95784
3.92789
3.92391
3.88526
3.84099
3.84642
3.8194
3.78306
3.74551
3.71124
3.69693
3.68863
3.64881
3.62309
3.59851
3.56716
3.57497
3.52025
3.50805
3.48027
3.45072
3.46208
3.38719
3.36625
3.35372
3.33459
3.32718
3.2537
3.23621
3.2316
3.2281
3.20333
3.12487
3.12675
3.10782
3.10648
3.09365
2.99412
3.00436
2.99148
2.97217
2.97607
2.86089
2.85239
2.85668
2.84189
2.85166
2.73627
2.72162
2.7224
2.71237
2.72395
2.61851
2.61027
2.60737
2.59298
2.58788
2.50173
2.50543
2.50247
2.47167
2.46131
2.37492
2.36897
2.36635
2.35222
2.35062
2.2465
2.23468
2.23856
2.23761
2.23184
2.12804
2.1248
2.11894
2.10835
2.1159
2.01222
2.01862
1.99766
1.98991
2.00333
1.89584
1.8954
1.89264
1.88839
1.88556
1.77863
1.77768
1.79402
1.79461
1.77765
1.66303
1.66408
1.68063
1.67109
1.66436
1.54796
1.54886
1.54858
1.55364
1.5491
1.44194
1.43842
1.4338
1.44884
1.44195
1.34376
1.33596
1.3458
1.34528
1.33846
1.2445
1.24145
1.25103
1.23514
1.23149
1.13801
1.13232
1.12861
1.12101
1.13491
1.03516
1.02737
1.02029
1.02895
1.03774
0.932889
0.930257
0.922065
0.926895
0.926146
0.82678
0.83743
0.81832
0.821891
0.82296
0.710366
0.716499
0.708259
0.711835
0.724473
0.596634
0.594132
0.60683
0.60164
0.601642
0.491544
0.493373
0.50091
0.506937
0.483885
0.393235
0.405406
0.390449
0.390745
0.383767
0.296628
0.301417
0.295186
0.287991
0.293663
0.197014
0.196444
0.206456
0.202603
0.20646
0.0831341
0.0853113
0.0887179
0.0854012
0.0862886
-0.225066
6.14788
9.28714
10.8542
11.6907
0.787375
2.88151
5.96043
7.96683
9.03966
1.16481
1.36584
3.86435
5.72931
6.65865
1.18589
1.27593
3.17589
4.43926
5.07197
1.49881
1.68822
3.07788
3.86637
4.26149
2.15221
2.32856
3.23603