/*--------------------------------*- C++ -*----------------------------------*\
| =========                 |                                                 |
| \\      /  F ield         | OpenFOAM: The Open Source CFD Toolbox           |
|  \\    /   O peration     | Version:  2.1.x                                 |
|   \\  /    A nd           | Web:      www.OpenFOAM.org                      |
|    \\/     M anipulation  |                                                 |
\*---------------------------------------------------------------------------*/
FoamFile
{
    version     2.0;
    format      ascii;
    class       surfaceScalarField;
    location    "0.1";
    object      phi;
}
// * * * * * * * * * * * * * * * * * * * * * * * * * * * * * * * * * * * * * //

dimensions      [0 3 -1 0 0 0 0];

internalField   nonuniform List<scalar> 
10050
(
4.8951e-05
4.19906e-09
5.49123e-08
4.88794e-05
2.443e-08
4.71595e-08
4.87333e-05
1.00582e-07
4.55114e-08
4.85688e-05
8.92416e-08
7.52313e-08
4.84864e-05
2.89274e-08
5.35047e-08
4.83685e-05
6.97808e-08
4.81784e-08
4.82888e-05
4.5298e-08
3.43746e-08
4.83433e-05
-7.97245e-08
2.52018e-08
4.83268e-05
-2.87551e-08
4.52798e-08
4.824e-05
3.54145e-08
5.13917e-08
4.82546e-05
1.00874e-08
-2.46589e-08
4.82574e-05
-1.30331e-08
1.01863e-08
4.82408e-05
-1.5485e-09
1.81208e-08
4.82139e-05
1.11078e-08
1.57889e-08
4.81804e-05
-5.12075e-09
3.86485e-08
4.81347e-05
5.72732e-09
4.00082e-08
4.80882e-05
-6.38555e-09
5.2839e-08
4.80136e-05
1.86607e-08
5.59715e-08
4.79162e-05
4.29669e-08
5.44667e-08
4.77761e-05
8.80516e-08
5.20394e-08
4.76808e-05
5.67323e-08
3.8555e-08
4.75958e-05
4.63503e-08
3.86599e-08
4.74528e-05
9.18503e-08
5.10802e-08
4.72874e-05
8.71511e-08
7.82972e-08
4.71373e-05
4.90272e-08
1.01051e-07
4.7075e-05
1.11015e-08
5.11904e-08
4.71001e-05
-1.84471e-08
-6.61818e-09
4.70708e-05
-1.63397e-08
4.56156e-08
4.70288e-05
-1.01762e-08
5.21802e-08
4.71264e-05
-3.82134e-08
-5.93998e-08
4.72228e-05
6.89082e-09
-1.03231e-07
4.72246e-05
1.32292e-09
-3.1851e-09
4.72169e-05
-5.39825e-08
6.16708e-08
4.71572e-05
1.73371e-08
4.23815e-08
4.71385e-05
4.58285e-08
-2.71148e-08
4.71923e-05
-1.14015e-08
-4.2368e-08
4.71139e-05
2.7495e-08
5.08506e-08
4.70493e-05
3.73726e-08
2.73019e-08
4.71468e-05
-2.68125e-08
-7.07717e-08
4.71866e-05
3.29198e-08
-7.26406e-08
4.70873e-05
1.3869e-07
-3.94536e-08
4.69151e-05
1.83318e-07
-1.10849e-08
4.67428e-05
1.84609e-07
-1.23082e-08
4.65835e-05
1.99522e-07
-4.02366e-08
4.63286e-05
2.95921e-07
-4.10349e-08
4.55323e-05
7.83199e-07
1.31486e-08
4.4245e-05
1.29813e-06
-1.08603e-08
4.19135e-05
2.3108e-06
2.06772e-08
3.80435e-05
3.84601e-06
2.40004e-08
6.49118e-06
1.22338e-07
3.143e-05
4.96744e-05
4.73102e-09
3.71926e-08
4.96731e-05
1.16051e-08
1.40731e-08
4.97961e-05
3.84361e-09
-2.62273e-08
4.98558e-05
-7.18971e-10
3.02071e-08
4.9797e-05
1.8483e-08
6.92906e-08
4.98826e-05
-5.23945e-08
3.65917e-08
4.99502e-05
-4.83786e-08
2.60485e-08
4.97773e-05
2.8753e-08
6.44621e-08
4.9662e-05
-1.81113e-08
1.04649e-07
4.96622e-05
-1.35619e-08
4.87159e-08
4.96867e-05
-4.44813e-08
3.00886e-08
4.96506e-05
-3.82971e-08
6.1383e-08
4.96729e-05
-5.83141e-08
3.44584e-08
4.97708e-05
-6.94886e-08
-1.7257e-08
4.97883e-05
-3.03115e-08
7.64614e-09
4.97741e-05
-2.83284e-08
4.82953e-08
4.96943e-05
-1.42839e-09
7.48343e-08
4.95044e-05
9.04411e-08
1.18106e-07
4.93777e-05
5.44647e-08
1.15183e-07
4.93535e-05
6.96497e-08
4.26456e-08
4.92434e-05
1.35625e-07
3.11339e-08
4.91422e-05
8.93227e-08
5.82773e-08
4.91971e-05
8.81791e-09
2.80736e-08
4.92548e-05
1.38265e-08
1.57003e-08
4.92966e-05
1.63259e-09
5.60462e-09
4.9281e-05
1.01759e-08
1.64574e-08
4.92127e-05
-1.67578e-08
6.66894e-08
4.91708e-05
-2.89325e-08
5.44216e-08
4.91399e-05
9.98087e-09
1.07249e-08
4.91244e-05
1.06533e-08
-3.33146e-08
4.92779e-05
-4.77695e-08
-9.88648e-08
4.93622e-05
-6.44251e-08
-1.85296e-08
4.92385e-05
-2.12293e-08
9.09746e-08
4.92723e-05
-6.09348e-08
4.44039e-08
4.94e-05
-5.337e-08
-2.84765e-08
4.9348e-05
3.2327e-08
8.30102e-09
4.9319e-05
1.32069e-08
4.32984e-08
4.93899e-05
-3.23926e-08
-1.1934e-09
4.93267e-05
5.18648e-08
-1.54879e-08
4.93275e-05
1.0304e-07
-7.0914e-08
4.94583e-05
1.49909e-07
-1.42024e-07
4.95257e-05
1.91885e-07
-7.59544e-08
4.95348e-05
2.40629e-07
-6.51308e-08
4.93964e-05
4.22146e-07
-8.4217e-08
4.89246e-05
7.64547e-07
3.20879e-09
4.82531e-05
1.40823e-06
4.64285e-08
4.71081e-05
2.36201e-06
8.12045e-08
4.55058e-05
3.92042e-06
-7.38924e-09
4.31468e-05
6.10321e-06
1.01807e-07
9.97682e-06
-4.47486e-09
3.96657e-05
4.96935e-05
-3.30971e-09
5.92579e-08
4.96418e-05
7.14311e-09
5.62042e-08
4.95577e-05
6.3415e-08
2.44511e-08
4.94962e-05
3.71037e-08
2.36751e-08
4.94527e-05
1.47538e-08
4.7243e-08
4.93163e-05
1.22509e-09
8.28421e-08
4.93101e-05
-8.13625e-08
3.91537e-08
4.94386e-05
-1.50505e-07
5.0736e-08
4.94003e-05
-4.20475e-08
6.22076e-08
4.93599e-05
-2.60095e-08
5.28969e-08
4.93099e-05
-8.01978e-08
8.57043e-08
4.92719e-05
-7.88489e-08
7.86125e-08
4.92466e-05
-1.10185e-07
7.70779e-08
4.92442e-05
-1.1629e-07
4.92544e-08
4.92846e-05
-9.28073e-08
2.20586e-08
4.92812e-05
-7.94445e-08
5.45569e-08
4.93544e-05
-1.05949e-07
3.13111e-08
4.94372e-05
-2.10498e-08
2.87133e-08
4.93536e-05
8.85801e-08
4.9461e-08
4.93816e-05
6.36291e-08
-2.19479e-08
4.94569e-05
8.6915e-08
-2.66388e-08
4.94298e-05
1.16893e-07
-3.99481e-10
4.93723e-05
2.73487e-08
3.89432e-08
4.92708e-05
1.69907e-08
9.8291e-08
4.90779e-05
9.60679e-08
9.84533e-08
4.88703e-05
1.16786e-07
1.01038e-07
4.86368e-05
9.30687e-08
1.23659e-07
4.84538e-05
6.10368e-08
9.30119e-08
4.84729e-05
3.25253e-08
-4.16225e-08
4.85405e-05
-1.27385e-08
-4.41816e-08
4.85008e-05
-1.8103e-08
1.00019e-08
4.84674e-05
-1.20879e-08
-1.88847e-08
4.8549e-05
-5.68465e-08
-4.59919e-08
4.84665e-05
-2.437e-08
4.59227e-08
4.8336e-05
2.2896e-08
5.41812e-08
4.83887e-05
-1.23758e-08
-7.92521e-09
4.8485e-05
-5.64382e-08
-2.67256e-08
4.84493e-05
4.09546e-09
-7.8193e-10
4.84735e-05
4.76265e-08
-1.99411e-08
4.86576e-05
4.4223e-08
-1.25291e-07
4.87783e-05
1.13001e-07
-8.37662e-08
4.88105e-05
1.87186e-07
-2.74872e-08
4.87127e-05
3.69792e-07
-3.14373e-08
4.86194e-05
5.17955e-07
-2.48387e-09
4.85845e-05
7.84984e-07
1.44843e-08
4.85414e-05
1.48242e-06
-3.11118e-08
4.84222e-05
2.49262e-06
-1.13972e-08
4.78595e-05
4.542e-06
-5.88628e-08
4.69632e-05
6.90232e-06
9.71785e-08
1.22891e-05
-1.01166e-07
4.47521e-05
4.9602e-05
-3.01843e-09
3.71034e-08
4.95687e-05
-1.97479e-08
6.02004e-08
4.96413e-05
-1.97468e-08
1.05232e-08
4.97024e-05
-3.00879e-08
6.14029e-09
4.97252e-05
-5.43516e-08
4.62499e-08
4.97077e-05
-3.43028e-08
5.29924e-08
4.9658e-05
-6.53531e-08
3.37286e-08
4.95421e-05
-7.95726e-08
4.50067e-08
4.95221e-05
-9.02884e-08
6.82002e-08
4.96042e-05
-1.46815e-07
3.87136e-08
4.96712e-05
-1.93249e-07
4.6027e-08
4.97182e-05
-1.87802e-07
6.20353e-08
4.96457e-05
-1.21406e-07
8.36291e-08
4.95724e-05
-1.26782e-07
8.38067e-08
4.95086e-05
-8.42869e-08
5.53386e-08
4.92684e-05
5.31438e-08
1.07583e-07
4.89517e-05
1.20769e-07
9.00035e-08
4.88245e-05
5.20286e-08
5.40887e-08
4.88898e-05
3.18702e-08
-8.61448e-09
4.89371e-05
3.49596e-08
-1.85917e-08
4.90102e-05
3.22435e-08
-1.83679e-08
4.90616e-05
4.16729e-08
2.3771e-08
4.89958e-05
4.85316e-08
4.45931e-08
4.88866e-05
6.28347e-08
6.34204e-08
4.89176e-05
3.91671e-08
2.58821e-08
4.90249e-05
-3.2103e-09
1.27026e-08
4.90632e-05
1.30148e-08
4.17536e-08
4.90359e-05
3.93627e-08
4.89093e-08
4.90409e-05
2.09398e-08
6.66588e-09
4.90224e-05
1.19891e-08
-6.25635e-09
4.90297e-05
-5.10555e-10
-2.493e-08
4.90637e-05
-1.99921e-08
-2.60539e-08
4.8902e-05
4.02114e-08
6.46037e-08
4.87484e-05
4.43901e-08
8.48513e-08
4.87483e-05
5.05528e-09
1.79794e-08
4.8757e-05
-1.36061e-08
-7.53554e-09
4.86642e-05
-2.28678e-08
5.93005e-08
4.87047e-05
-4.56548e-08
9.18941e-09
4.88689e-05
-5.37394e-08
-6.27862e-08
4.89994e-05
2.88264e-08
-1.15114e-07
4.91313e-05
1.07978e-07
-1.26842e-07
4.92577e-05
1.49652e-07
-8.89474e-08
4.94135e-05
2.33682e-07
-1.96535e-08
4.95214e-05
3.36129e-07
7.38966e-08
4.97383e-05
5.4591e-07
2.22484e-08
5.02395e-05
9.5864e-07
2.25104e-08
5.11105e-05
1.59465e-06
2.69797e-08
5.2408e-05
3.20469e-06
3.98526e-08
5.35188e-05
5.59777e-06
1.93719e-07
1.41974e-05
-7.56089e-08
5.16861e-05
4.90295e-05
1.63383e-08
4.89713e-05
3.84173e-08
4.89623e-05
-1.06899e-08
4.89186e-05
1.35401e-08
4.87846e-05
7.973e-08
4.86989e-05
5.13259e-08
4.85785e-05
5.50615e-08
4.83807e-05
1.18265e-07
4.81784e-05
1.11954e-07
4.79329e-05
9.87195e-08
4.75778e-05
1.61907e-07
4.72228e-05
1.67167e-07
4.69035e-05
1.97903e-07
4.65807e-05
1.9597e-07
4.63892e-05
1.07289e-07
4.64009e-05
4.14422e-08
4.64947e-05
2.69323e-08
4.65186e-05
2.8094e-08
4.65577e-05
-7.24362e-09
4.66772e-05
-8.45441e-08
4.67544e-05
-4.49086e-08
4.68125e-05
-1.64525e-08
4.68964e-05
-3.53396e-08
4.69713e-05
-1.20221e-08
4.7023e-05
-1.25627e-08
4.705e-05
-3.02145e-08
4.70392e-05
2.37578e-08
4.70361e-05
4.25304e-08
4.70585e-05
-1.50613e-09
4.70794e-05
-8.88135e-09
4.70921e-05
-1.32003e-08
4.71167e-05
-4.46015e-08
4.71534e-05
3.48766e-09
4.71515e-05
4.63012e-08
4.71436e-05
1.2956e-08
4.71344e-05
-4.42513e-09
4.71194e-05
-7.8878e-09
4.70813e-05
-7.50937e-09
4.70466e-05
-1.90766e-08
4.71864e-05
-1.10905e-07
4.74143e-05
-1.2e-07
4.76136e-05
-4.96064e-08
4.7886e-05
-3.87451e-08
4.82553e-05
-3.31006e-08
4.88458e-05
-4.46245e-08
4.98313e-05
-2.68614e-08
5.14682e-05
-4.22888e-08
5.4656e-05
1.69185e-08
6.03895e-05
-1.35688e-07
3.46568e-07
7.42403e-05
4.99995e-05
-3.29586e-08
-4.2688e-08
5.00995e-05
-2.62529e-08
-2.65943e-08
5.01463e-05
-1.18817e-08
1.05343e-08
5.01097e-05
5.48035e-08
5.70059e-08
5.00379e-05
4.60729e-08
7.92971e-08
5.00078e-05
7.83673e-08
-1.37297e-10
5.00141e-05
7.06267e-08
-4.25647e-08
5.01309e-05
-5.06681e-09
-8.64929e-08
5.01361e-05
6.08971e-09
3.40047e-08
5.00432e-05
3.05689e-08
1.13757e-07
4.98466e-05
6.63184e-08
1.05563e-07
4.96938e-05
6.90166e-08
9.40099e-08
4.96001e-05
4.23119e-08
6.94885e-08
4.95617e-05
2.26527e-08
3.15685e-08
4.96082e-05
1.09285e-10
-7.99542e-09
4.96272e-05
5.06602e-09
1.59035e-08
4.96382e-05
-8.16009e-10
4.27471e-08
4.96057e-05
4.21545e-08
4.62959e-08
4.96034e-05
6.92395e-08
-1.24532e-08
4.96577e-05
3.38686e-08
-3.61823e-08
4.96364e-05
1.84349e-08
4.14307e-08
4.96576e-05
3.6936e-08
-1.94768e-08
4.96351e-05
7.25438e-08
1.04218e-09
4.95912e-05
5.53633e-08
6.68151e-08
4.9706e-05
-2.1263e-08
7.52702e-09
4.98073e-05
-9.72113e-09
-4.03603e-08
4.97522e-05
5.74743e-08
-8.98027e-09
4.97786e-05
2.81989e-08
-9.06533e-09
4.98973e-05
-1.252e-08
-5.39296e-08
4.98615e-05
-1.63365e-08
-7.3132e-09
4.97697e-05
6.50757e-09
-1.79049e-08
4.98072e-05
1.27493e-09
-4.19684e-08
4.9944e-05
-5.05854e-08
-2.4513e-08
5.00138e-05
-3.01085e-08
2.6155e-09
4.994e-05
2.2704e-08
2.39905e-08
4.98982e-05
2.56667e-08
-2.62014e-08
4.99653e-05
6.8009e-09
-2.30801e-08
4.99863e-05
-7.48449e-09
1.37926e-08
4.9851e-05
1.0103e-08
5.4431e-08
4.96592e-05
1.99525e-08
9.91974e-08
4.95583e-05
2.8754e-08
3.26919e-08
4.93686e-05
1.36503e-07
4.21763e-08
4.91542e-05
1.82467e-07
1.96276e-08
4.88897e-05
2.02658e-07
2.16088e-08
4.85102e-05
3.32429e-07
5.98995e-09
4.76104e-05
8.85259e-07
2.76778e-08
4.63016e-05
1.25689e-06
4.10232e-08
4.39464e-05
2.20151e-06
1.74454e-07
4.01028e-05
3.70433e-06
1.63227e-07
6.246e-06
2.5038e-07
3.37288e-05
5.02407e-05
3.45437e-08
2.93342e-08
5.01334e-05
7.35087e-08
2.15651e-08
5.0036e-05
4.93196e-08
1.00064e-08
5.01395e-05
-3.52273e-08
1.67748e-08
5.03056e-05
-3.80324e-08
-1.27242e-08
5.05712e-05
-6.56773e-08
-8.4995e-08
5.08215e-05
-4.82901e-08
-1.05335e-07
5.08745e-05
-1.52575e-08
2.17005e-08
5.09322e-05
-3.97575e-08
9.27761e-08
5.09392e-05
1.56702e-08
5.6623e-08
5.09398e-05
3.26473e-08
6.31201e-08
5.09973e-05
-4.1329e-09
7.7026e-08
5.10323e-05
1.39031e-08
2.79052e-08
5.10224e-05
3.95306e-08
-2.41819e-08
5.10574e-05
1.10629e-08
-3.83826e-08
5.11107e-05
-2.66962e-09
2.77857e-09
5.10686e-05
-1.26791e-09
1.17356e-07
5.11666e-05
-2.22028e-08
8.4451e-08
5.13495e-05
-3.61525e-09
5.16386e-09
5.14059e-05
2.4155e-08
-4.08427e-09
5.13905e-05
5.10689e-08
1.39089e-08
5.1482e-05
2.52732e-08
-2.14883e-08
5.16339e-05
1.05562e-10
-5.14327e-08
5.16768e-05
3.49038e-08
-6.75491e-09
5.16041e-05
5.68646e-08
2.31618e-10
5.15945e-05
2.6243e-08
-9.93976e-09
5.17097e-05
1.61805e-08
-7.24269e-09
5.18077e-05
1.52502e-08
-3.0549e-08
5.18821e-05
-3.33477e-08
-4.28918e-08
5.18378e-05
7.87401e-09
-1.31796e-08
5.16736e-05
7.65157e-08
-4.76152e-09
5.17199e-05
-3.81547e-08
-2.5382e-08
5.19456e-05
-1.2688e-07
-5.83732e-08
5.20194e-05
-4.06527e-08
-1.88786e-08
5.19041e-05
5.91555e-08
5.0316e-08
5.18744e-05
3.66652e-08
2.70579e-08
5.19628e-05
-3.85608e-08
2.95044e-10
5.1989e-05
-2.35713e-08
-1.1351e-08
5.19274e-05
4.07634e-08
1.5419e-08
5.17303e-05
8.91318e-08
5.70652e-08
5.14308e-05
1.56324e-07
2.99341e-08
5.13291e-05
2.25798e-07
-6.35492e-08
5.12826e-05
2.73893e-07
-1.10152e-07
5.10199e-05
4.36774e-07
-5.56301e-08
5.06099e-05
7.57767e-07
-1.21056e-08
5.0175e-05
1.33398e-06
3.25862e-08
4.92597e-05
2.19965e-06
5.38003e-08
4.77454e-05
3.66502e-06
4.33577e-08
4.54479e-05
6.02317e-06
8.04697e-08
9.39901e-06
1.05063e-07
4.21854e-05
5.06685e-05
-1.59082e-08
-2.10764e-08
5.08447e-05
1.57305e-08
-6.22459e-08
5.08663e-05
5.73346e-08
-5.15066e-09
5.07281e-05
4.59195e-08
8.07589e-08
5.06986e-05
1.51608e-08
2.35321e-08
5.07099e-05
-2.57466e-09
8.42769e-09
5.07931e-05
-6.53329e-08
-2.69547e-08
5.09506e-05
-1.34305e-07
1.22531e-08
5.08899e-05
-1.84228e-08
1.01554e-07
5.09157e-05
1.83811e-09
4.09626e-08
5.1046e-05
-6.17535e-08
4.97513e-08
5.10306e-05
-4.24815e-08
1.32439e-07
5.10952e-05
-3.92758e-08
6.55762e-08
5.12031e-05
-1.53064e-08
-3.80747e-09
5.12398e-05
-2.13886e-08
1.78084e-08
5.12585e-05
-1.30815e-08
4.62848e-08
5.12349e-05
-3.6651e-08
9.0354e-08
5.13198e-05
-9.26753e-08
1.42764e-08
5.14902e-05
-7.62865e-08
-4.83175e-08
5.15636e-05
3.00266e-09
-7.41683e-08
5.16222e-05
2.98637e-08
-6.39826e-08
5.15896e-05
6.61959e-08
-8.71669e-09
5.16149e-05
2.04852e-08
-6.79064e-09
5.17695e-05
-3.4522e-08
1.31073e-08
5.18453e-05
1.77324e-08
6.18379e-08
5.18524e-05
2.78951e-08
9.22674e-08
5.18634e-05
5.88816e-08
6.99375e-08
5.19108e-05
5.54916e-08
5.41284e-09
5.17869e-05
6.10175e-08
-1.2147e-08
5.17517e-05
1.1798e-09
-2.28556e-09
5.1911e-05
-7.84377e-08
5.64183e-09
5.18589e-05
-1.54308e-08
1.05363e-08
5.16517e-05
1.54005e-08
1.89213e-08
5.16951e-05
-1.70361e-08
-2.11144e-08
5.19278e-05
-4.18028e-08
-7.75385e-08
5.19856e-05
-8.31415e-09
-2.07744e-08
5.1831e-05
3.52426e-08
5.40962e-08
5.17691e-05
1.58975e-08
2.16843e-08
5.18179e-05
1.82265e-08
-4.62219e-08
5.1737e-05
4.96573e-08
-4.95602e-09
5.1755e-05
7.69369e-08
-2.23531e-08
5.18679e-05
1.98344e-07
-1.12913e-07
5.18124e-05
3.68383e-07
-7.04819e-08
5.16457e-05
6.20957e-07
-1.99609e-08
5.15654e-05
8.47953e-07
4.6746e-09
5.14275e-05
1.41201e-06
2.86723e-08
5.10958e-05
2.58334e-06
-6.33129e-08
5.0616e-05
4.08663e-06
-6.48784e-10
4.91239e-05
7.71461e-06
-1.02206e-07
1.07933e-05
1.91242e-07
4.74372e-05
5.04569e-05
-1.61937e-08
-8.0815e-09
5.06166e-05
-3.13239e-08
-5.24788e-08
5.07517e-05
-3.97018e-08
-2.75111e-08
5.08278e-05
-3.52229e-08
1.11904e-08
5.09289e-05
-1.54975e-08
-2.4225e-08
5.10086e-05
-3.14529e-08
2.21221e-09
5.1024e-05
-6.5258e-08
1.82645e-08
5.08667e-05
-1.93539e-08
8.73084e-08
5.08533e-05
-4.81435e-08
1.11303e-07
5.09141e-05
-8.2221e-08
6.20392e-08
5.09509e-05
-9.13213e-08
3.88232e-08
5.10367e-05
-9.2676e-08
2.64028e-08
5.11221e-05
-2.40903e-08
-1.70042e-08
5.12532e-05
-2.21877e-08
-4.04066e-08
5.1289e-05
-2.05216e-08
1.8674e-08
5.132e-05
1.1069e-08
5.2436e-08
5.11586e-05
6.60834e-08
1.48649e-07
5.08978e-05
6.37035e-08
1.5859e-07
5.07146e-05
3.54092e-08
6.28601e-08
5.06673e-05
1.86833e-08
1.30151e-08
5.06636e-05
1.53503e-08
-1.90697e-10
5.07093e-05
1.73655e-08
2.69689e-08
5.07496e-05
-2.40608e-08
4.88501e-08
5.07526e-05
1.80783e-08
7.83513e-09
5.07738e-05
-6.38656e-10
2.30451e-08
5.08551e-05
-7.22894e-08
3.15076e-08
5.10506e-05
-8.40199e-08
-1.08454e-08
5.11805e-05
-3.53048e-09
-2.19049e-08
5.13084e-05
-2.08662e-08
-3.93239e-08
5.13895e-05
-2.00097e-08
-6.61948e-08
5.1292e-05
3.00734e-08
-3.59474e-08
5.13078e-05
-2.91902e-08
-2.80795e-08
5.13654e-05
-1.50311e-08
3.73888e-08
5.13643e-05
3.03745e-08
3.85404e-08
5.13863e-05
6.7733e-09
-5.25515e-08
5.14319e-05
-2.38876e-08
-3.76332e-08
5.15982e-05
-5.45763e-08
-1.71066e-08
5.16835e-05
-3.69823e-08
-2.32436e-08
5.17034e-05
-1.14556e-08
-5.30371e-08
5.1671e-05
2.73489e-08
-6.03914e-08
5.1647e-05
7.2698e-08
-9.86406e-08
5.16603e-05
1.80656e-07
-8.45447e-08
5.1934e-05
1.44379e-07
-6.93258e-08
5.24591e-05
2.62956e-07
-9.32289e-08
5.26858e-05
6.20484e-07
2.30514e-08
5.32839e-05
8.81958e-07
-4.55153e-08
5.42929e-05
1.6913e-06
-8.9969e-08
5.55626e-05
2.87439e-06
-1.76329e-08
5.72119e-05
6.30279e-06
-4.37478e-08
1.25859e-05
2.50617e-07
5.50931e-05
4.97626e-05
-1.43526e-08
4.98146e-05
-4.494e-08
4.97973e-05
-3.31193e-08
4.97967e-05
-2.10355e-08
4.9858e-05
2.91639e-09
4.98578e-05
2.00944e-08
4.97805e-05
6.70407e-08
4.97698e-05
1.09684e-07
4.97358e-05
9.77535e-08
4.96592e-05
9.31139e-08
4.96713e-05
5.85001e-08
4.9637e-05
1.08796e-07
4.97448e-05
6.60415e-08
4.9936e-05
-1.74828e-08
4.99859e-05
3.6858e-08
4.99884e-05
5.00359e-08
5.00334e-05
4.80045e-08
5.00807e-05
4.44837e-08
5.01265e-05
-1.7552e-08
5.00617e-05
-1.05431e-09
5.00404e-05
-8.29125e-09
5.0082e-05
-4.06586e-08
5.00342e-05
-1.16066e-08
5.00699e-05
-2.96471e-08
5.00948e-05
-3.80917e-08
4.99408e-05
5.14679e-08
4.98131e-05
6.74393e-08
4.98541e-05
-1.96172e-09
4.98531e-05
-2.1448e-08
4.98721e-05
-4.78193e-08
4.99903e-05
-1.01323e-07
4.996e-05
-4.35156e-08
4.99357e-05
1.27734e-08
4.99856e-05
2.6777e-08
5.00014e-05
3.90247e-09
5.00216e-05
-4.85733e-08
4.99874e-05
-2.82273e-08
4.99334e-05
9.52064e-09
4.98858e-05
1.71021e-08
4.97463e-05
5.59385e-08
4.97325e-05
-3.34957e-08
4.99095e-05
-4.59887e-08
5.00222e-05
-7.03866e-09
5.02919e-05
-3.98725e-08
5.08986e-05
-3.08322e-08
5.17952e-05
-4.14584e-08
5.34373e-05
6.90233e-09
5.63094e-05
1.91389e-08
6.23316e-05
1.44911e-07
-1.32501e-07
7.53965e-05
4.96684e-05
4.58257e-08
-3.0868e-08
4.965e-05
1.99683e-08
-2.82285e-08
4.96506e-05
1.83245e-08
-8.32523e-09
4.96793e-05
6.08584e-08
-3.25837e-08
4.98442e-05
-5.39154e-09
-8.02068e-08
4.99195e-05
1.13429e-08
-8.68262e-08
4.98562e-05
6.06041e-08
-3.98618e-08
4.96426e-05
1.00897e-07
2.62804e-08
4.95892e-05
5.95488e-08
2.7809e-08
4.9718e-05
-1.65522e-08
1.48996e-09
4.97879e-05
7.11814e-09
2.86052e-08
4.97931e-05
9.60768e-09
7.91428e-08
4.98239e-05
-3.05153e-08
6.9195e-08
4.98605e-05
-3.97284e-08
3.47237e-08
4.9862e-05
-3.82475e-08
2.87721e-08
4.98496e-05
9.70389e-09
1.86001e-08
4.98094e-05
5.87451e-08
2.42453e-08
4.97478e-05
7.22373e-08
3.56395e-08
4.96746e-05
5.46472e-08
6.06284e-09
4.97061e-05
-1.63257e-08
-5.13797e-08
4.98477e-05
-4.15189e-08
-5.85884e-08
4.98821e-05
-3.24482e-08
-2.14961e-08
4.99174e-05
7.77031e-10
-3.50166e-08
5.00308e-05
-7.99614e-09
-3.856e-08
5.00752e-05
-1.4789e-08
-2.21147e-08
4.99911e-05
6.05538e-08
-1.6759e-08
4.99735e-05
8.22974e-08
-7.37321e-08
5.00913e-05
-1.45972e-09
-1.25357e-07
5.01226e-05
1.33154e-08
-9.85684e-08
5.01233e-05
2.34351e-08
-3.14532e-08
5.00466e-05
5.69126e-08
1.88197e-09
4.99557e-05
5.63494e-08
-7.43022e-09
4.99938e-05
-3.32345e-08
-2.93755e-08
5.00021e-05
5.94001e-09
-1.16579e-08
4.98956e-05
8.4107e-08
4.64319e-08
4.97175e-05
8.6417e-08
6.55064e-08
4.96338e-05
6.11267e-08
-5.6208e-10
4.96769e-05
1.26405e-09
-3.05585e-08
4.97267e-05
2.80824e-08
-2.33918e-08
4.98521e-05
2.07978e-08
-4.70508e-08
4.98232e-05
3.6487e-08
2.51461e-08
4.97248e-05
1.10678e-07
2.98822e-08
4.96226e-05
1.34058e-07
-1.2197e-08
4.94417e-05
1.50513e-07
5.19366e-08
4.91137e-05
2.861e-07
4.7879e-08
4.81765e-05
8.89415e-07
7.5452e-08
4.68284e-05
1.3115e-06
7.76606e-08
4.46737e-05
2.20325e-06
1.25884e-07
4.11708e-05
3.51073e-06
1.55444e-07
6.12456e-06
2.65636e-07
3.5031e-05
5.06361e-05
-1.83265e-08
-4.87386e-08
5.07164e-05
-4.82213e-09
-3.38982e-08
5.07118e-05
2.51307e-08
7.72569e-09
5.078e-05
2.48613e-08
-1.54105e-08
5.07808e-05
2.95394e-08
-4.84945e-08
5.07479e-05
2.12985e-08
-6.20189e-08
5.07541e-05
-4.64071e-08
-4.4605e-09
5.0894e-05
-2.12352e-08
3.93925e-09
5.1116e-05
-7.1338e-09
-6.25656e-08
5.11918e-05
-2.78591e-08
-7.93272e-09
5.11976e-05
-9.0698e-09
7.3579e-08
5.11918e-05
-1.91173e-09
9.42843e-08
5.11018e-05
-5.88035e-09
9.33302e-08
5.09923e-05
-3.56032e-10
4.59231e-08
5.08902e-05
2.04502e-08
5.01654e-09
5.09102e-05
6.89474e-09
-1.43846e-08
5.10847e-05
-1.63645e-08
1.79268e-08
5.12392e-05
-2.38409e-08
2.60779e-08
5.12919e-05
3.012e-09
4.11548e-09
5.12391e-05
2.89217e-08
3.42222e-09
5.11618e-05
2.83945e-08
2.13084e-08
5.10045e-05
6.74349e-08
3.58862e-08
5.09221e-05
4.7933e-08
-1.61529e-08
5.0974e-05
-8.46679e-09
-5.82228e-08
5.09259e-05
2.08453e-08
1.27103e-08
5.09655e-05
3.4601e-08
-2.35536e-08
5.1088e-05
2.62561e-08
-7.37121e-08
5.11046e-05
-5.29509e-09
-4.33203e-08
5.12356e-05
-5.79054e-08
-1.0263e-07
5.13237e-05
5.95185e-09
-8.38425e-08
5.13604e-05
5.08592e-08
-3.54312e-08
5.14755e-05
-1.71765e-08
-6.68934e-08
5.14198e-05
1.27118e-08
-4.86478e-08
5.14097e-05
1.06816e-08
-1.35395e-08
5.15596e-05
-4.10506e-08
2.56395e-08
5.16614e-05
-6.22976e-09
1.78942e-08
5.16907e-05
2.65977e-08
5.54122e-09
5.16324e-05
3.69714e-08
1.11479e-08
5.16762e-05
1.32429e-08
-1.34475e-08
5.17116e-05
7.1906e-08
-2.94694e-08
5.17103e-05
1.06449e-07
-3.8752e-08
5.17748e-05
6.58688e-08
-8.32499e-08
5.16418e-05
1.61325e-07
-4.40717e-09
5.12374e-05
4.13724e-07
8.55418e-08
5.0726e-05
7.35516e-07
4.98658e-08
5.02414e-05
1.39035e-06
1.62347e-08
4.93903e-05
2.22306e-06
-6.62671e-09
4.79173e-05
3.71357e-06
6.03753e-09
4.56918e-05
5.81785e-06
-1.08764e-09
9.28685e-06
5.54181e-08
4.25791e-05
5.04647e-05
-2.42356e-08
9.94094e-09
5.03823e-05
-2.16653e-08
3.69264e-08
5.04336e-05
4.65786e-09
-3.59025e-08
5.06722e-05
-3.03321e-08
-1.02704e-07
5.08193e-05
-4.39845e-08
-4.99869e-08
5.08871e-05
-2.60346e-08
-1.20719e-08
5.08268e-05
8.8367e-09
-2.18988e-08
5.08268e-05
6.68871e-09
-1.56735e-08
5.09776e-05
-5.1881e-09
-5.11386e-08
5.09788e-05
-1.0357e-08
2.2238e-08
5.10355e-05
-4.8723e-08
3.26523e-08
5.12523e-05
-1.26369e-07
4.01503e-08
5.13682e-05
-1.08128e-07
5.19008e-08
5.13879e-05
-3.66087e-08
1.27309e-08
5.14091e-05
-1.88366e-08
3.59142e-08
5.14218e-05
-1.28621e-08
5.3365e-08
5.14464e-05
-8.20897e-09
5.75714e-08
5.13625e-05
7.37135e-09
6.69502e-08
5.13166e-05
6.73393e-09
-6.09735e-09
5.12701e-05
1.20941e-08
-1.0821e-08
5.11599e-05
5.45071e-08
2.00465e-08
5.11542e-05
6.16636e-08
2.75527e-09
5.11173e-05
6.67928e-08
1.12211e-08
5.11435e-05
-5.13634e-08
2.98909e-08
5.12185e-05
-4.21201e-08
4.97942e-08
5.1348e-05
-2.28303e-09
-3.55389e-10
5.14721e-05
7.25707e-09
-3.51909e-08
5.14038e-05
6.31324e-08
5.26641e-09
5.12054e-05
7.33929e-08
5.49655e-08
5.1206e-05
-3.3514e-08
3.66211e-08
5.13843e-05
-6.89971e-08
-5.28446e-08
5.14669e-05
-2.34924e-08
-6.57146e-08
5.15179e-05
9.40533e-09
-2.87425e-08
5.14033e-05
5.99351e-08
4.41779e-08
5.11901e-05
6.39977e-09
8.81863e-08
5.12051e-05
-4.48387e-08
2.91188e-09
5.13986e-05
-6.96342e-08
-4.32551e-08
5.15746e-05
-4.49619e-08
-7.2303e-08
5.16226e-05
-2.7272e-08
-5.37498e-08
5.17827e-05
-3.05604e-08
-6.25467e-08
5.18857e-05
1.61986e-08
-3.51907e-08
5.16427e-05
1.53634e-07
4.24086e-08
5.1337e-05
3.95288e-07
1.2121e-09
5.12064e-05
5.40534e-07
-1.61914e-08
5.11538e-05
8.61127e-07
-6.83177e-08
5.11163e-05
1.57342e-06
-1.16853e-07
5.10688e-05
2.26869e-06
-6.1502e-08
5.0618e-05
4.28191e-06
-1.1817e-07
4.9566e-05
6.68856e-06
7.91017e-08
1.16304e-05
-1.56654e-07
4.75703e-05
5.0352e-05
-2.38732e-08
1.3393e-08
5.02466e-05
-4.40958e-09
3.56721e-08
5.02851e-05
-1.99435e-08
-4.14231e-08
5.04652e-05
-1.03855e-07
-9.53912e-08
5.04715e-05
-3.67879e-08
-3.7722e-08
5.05403e-05
-2.17793e-08
-7.08635e-08
5.06553e-05
6.46324e-09
-9.43372e-08
5.07728e-05
-4.19061e-10
-2.30476e-08
5.09642e-05
-7.22817e-08
-1.3052e-08
5.10786e-05
-7.05286e-08
7.83855e-09
5.10754e-05
-7.97074e-08
7.29965e-08
5.09251e-05
-5.14474e-08
1.01817e-07
5.07029e-05
1.56609e-08
8.14375e-08
5.06502e-05
-5.36663e-08
2.93248e-08
5.06848e-05
-7.13312e-08
3.65511e-08
5.07385e-05
-4.18537e-08
2.77722e-08
5.0799e-05
8.99188e-10
7.90191e-08
5.08767e-05
6.48268e-09
8.17921e-08
5.09192e-05
-2.64923e-08
5.35186e-08
5.08896e-05
1.70107e-08
3.7749e-08
5.09079e-05
4.58613e-08
-9.85468e-09
5.1056e-05
-2.16136e-09
-5.72974e-08
5.12859e-05
-5.00932e-08
-6.41405e-08
5.12213e-05
-4.26048e-08
6.36749e-08
5.11294e-05
-1.5754e-08
8.85975e-08
5.1193e-05
-4.86172e-08
1.42234e-08
5.12435e-05
-2.79945e-08
-2.60953e-08
5.13137e-05
2.03238e-08
-4.93392e-08
5.14173e-05
1.25114e-08
-8.20104e-08
5.13671e-05
7.28071e-09
-5.68411e-08
5.13027e-05
-2.18012e-08
-1.86559e-08
5.13232e-05
-4.17392e-08
-3.03827e-08
5.14747e-05
-5.33904e-08
-5.12836e-08
5.16614e-05
-1.56084e-08
-7.26224e-08
5.15552e-05
5.56583e-08
4.34757e-09
5.1483e-05
-3.63673e-08
2.61479e-08
5.15811e-05
-1.15021e-07
-6.98517e-08
5.16234e-05
-5.79863e-08
-5.24955e-08
5.14957e-05
3.08037e-08
1.65715e-08
5.12801e-05
1.30517e-07
-5.88735e-09
5.10655e-05
1.03909e-07
2.82744e-08
5.10532e-05
1.24703e-07
-4.33608e-08
5.12493e-05
2.32921e-07
-1.03051e-07
5.14547e-05
2.99402e-07
-5.75103e-08
5.19824e-05
5.04731e-07
-1.48196e-07
5.26293e-05
9.52359e-07
-7.13906e-08
5.32996e-05
1.54168e-06
-3.32656e-08
5.45463e-05
3.06395e-06
-4.63075e-08
5.57729e-05
5.43401e-06
-1.58088e-08
1.39208e-05
-2.66966e-07
5.4e-05
4.96952e-05
-1.47168e-08
4.9669e-05
-2.31926e-08
4.96596e-05
-4.36004e-08
4.95362e-05
-1.50479e-09
4.9482e-05
2.0322e-08
4.95317e-05
-5.1357e-08
4.96771e-05
-7.19501e-08
4.98584e-05
-7.20176e-08
4.99139e-05
-3.00568e-08
4.99018e-05
3.47099e-08
4.98024e-05
7.82264e-08
4.97691e-05
9.0582e-08
4.98138e-05
3.70548e-08
4.97368e-05
5.83707e-09
4.97274e-05
-2.5046e-08
4.97398e-05
-4.28434e-09
4.9741e-05
4.77159e-08
4.97747e-05
1.72522e-08
4.96929e-05
3.78444e-08
4.97064e-05
2.37539e-09
4.98287e-05
-8.46812e-08
4.98288e-05
-4.29313e-08
4.97764e-05
-9.25342e-09
4.9671e-05
3.31206e-08
4.95269e-05
9.02404e-08
4.94395e-05
9.02138e-08
4.94635e-05
1.54286e-08
4.95405e-05
-5.86064e-08
4.96201e-05
-8.85605e-08
4.96857e-05
-1.06132e-07
4.96094e-05
-4.68152e-08
4.95077e-05
1.64689e-08
4.94053e-05
6.18329e-08
4.94069e-05
9.50307e-09
4.94539e-05
1.2583e-08
4.92794e-05
8.95544e-08
4.91007e-05
3.5469e-08
4.90478e-05
4.44946e-09
4.91086e-05
-1.2971e-08
4.92959e-05
-7.73139e-10
4.93251e-05
4.12152e-08
4.94626e-05
-5.8814e-08
4.9765e-05
-7.65187e-08
5.009e-05
-6.54191e-08
5.06461e-05
-8.22616e-08
5.16183e-05
-6.12685e-08
5.32621e-05
-9.51973e-08
5.6435e-05
-8.98452e-08
6.22218e-05
-2.07884e-07
6.76674e-08
7.59425e-05
4.96263e-05
2.21341e-08
-2.23993e-08
4.9633e-05
4.08246e-09
-3.90541e-08
4.972e-05
1.79356e-08
-1.13269e-07
4.97891e-05
2.84179e-08
-1.30072e-07
4.98446e-05
-1.10069e-08
-1.24758e-07
4.97372e-05
3.67155e-08
-1.61412e-08
4.95576e-05
9.59227e-08
4.38617e-08
4.94449e-05
8.85444e-08
5.03961e-08
4.94429e-05
1.0665e-08
1.91756e-08
4.95201e-05
-5.23335e-08
-2.33699e-08
4.94924e-05
3.52257e-08
2.10791e-08
4.94964e-05
4.55197e-08
2.95949e-08
4.95225e-05
1.37515e-08
2.93499e-08
4.95583e-05
1.96929e-09
-3.02969e-09
4.96674e-05
-3.8987e-08
-4.12992e-08
4.97333e-05
3.10034e-09
-5.04251e-08
4.97898e-05
5.51252e-08
-8.7374e-08
4.98491e-05
5.82492e-08
-8.19061e-08
4.97977e-05
7.63751e-08
-1.89129e-08
4.97431e-05
4.94689e-08
-4.62376e-08
4.96945e-05
4.54874e-08
-5.55474e-08
4.96248e-05
4.19861e-08
6.28851e-09
4.96233e-05
2.70588e-09
-3.62751e-08
4.96415e-05
2.14136e-09
-5.88889e-08
4.96551e-05
4.39756e-08
-7.96727e-08
4.96811e-05
8.09987e-08
-1.23753e-07
4.96901e-05
1.00158e-07
-1.82845e-07
4.95895e-05
1.03393e-07
-1.28186e-07
4.95039e-05
3.50721e-08
-4.80108e-08
4.94392e-05
2.63783e-08
6.82494e-09
4.94198e-05
5.69558e-08
-3.56339e-08
4.95226e-05
-1.43199e-08
-9.59404e-08
4.96956e-05
-7.73653e-08
-1.25013e-07
4.97491e-05
-2.46033e-08
-4.06029e-08
4.97458e-05
7.21848e-09
4.25249e-08
4.97825e-05
1.09075e-08
1.78869e-08
4.97617e-05
3.01079e-08
-9.80589e-09
4.97503e-05
-8.61055e-10
-1.83403e-08
4.97573e-05
-2.05614e-08
-9.85248e-09
4.96888e-05
-1.38357e-08
3.53004e-08
4.97046e-05
-3.13285e-08
4.06944e-08
4.97141e-05
1.8158e-08
2.20981e-09
4.96386e-05
1.11872e-07
-4.85765e-08
4.94932e-05
2.5375e-07
-5.63853e-08
4.92203e-05
2.84035e-07
3.678e-08
4.83902e-05
7.64321e-07
1.4123e-07
4.71732e-05
1.17702e-06
1.17639e-07
4.51469e-05
2.08181e-06
7.03367e-08
4.17649e-05
3.49215e-06
4.52768e-08
6.06112e-06
8.53488e-08
3.58841e-05
5.02686e-05
4.95429e-08
-4.10811e-08
5.01811e-05
8.83083e-08
-3.06501e-08
5.02541e-05
2.22453e-08
-6.95697e-08
5.04737e-05
-6.86686e-08
-1.37938e-07
5.04649e-05
6.30224e-09
-5.69879e-08
5.03314e-05
5.81061e-08
5.01257e-08
5.04351e-05
-4.57689e-08
3.35258e-08
5.06053e-05
-4.82834e-08
-2.94241e-08
5.05712e-05
2.79508e-08
-4.58235e-08
5.04723e-05
2.84613e-08
1.01935e-08
5.06147e-05
-2.90655e-08
-4.48196e-09
5.0821e-05
-3.72738e-08
-2.92581e-08
5.09411e-05
-4.08875e-08
2.7891e-08
5.10135e-05
-4.49428e-08
2.04717e-08
5.09604e-05
2.63294e-08
-7.2488e-09
5.09998e-05
9.5641e-09
-6.0209e-08
5.11409e-05
-2.80967e-09
-6.52614e-08
5.12511e-05
-8.05789e-09
-1.77864e-08
5.13747e-05
-2.7045e-08
-1.61188e-08
5.14608e-05
-9.16812e-09
-2.40192e-08
5.15201e-05
2.95931e-08
-2.21406e-08
5.14996e-05
5.10927e-08
4.7358e-08
5.137e-05
5.16839e-08
6.44404e-08
5.12641e-05
5.08518e-08
-1.04595e-09
5.13229e-05
5.56422e-08
-5.77192e-08
5.14075e-05
6.01741e-08
-8.73867e-08
5.15377e-05
2.86553e-08
-1.32412e-07
5.1756e-05
-2.03789e-08
-1.37857e-07
5.17466e-05
3.76735e-08
-9.58191e-08
5.18155e-05
2.56965e-08
-1.52008e-07
5.20277e-05
-5.29109e-08
-1.37788e-07
5.20606e-05
-4.89406e-08
-6.51804e-08
5.19538e-05
6.28281e-09
-2.54718e-08
5.18644e-05
1.30001e-08
3.81982e-08
5.17963e-05
1.95421e-08
8.14533e-08
5.17897e-05
2.65861e-09
3.27181e-08
5.18725e-05
-2.91236e-08
-1.79633e-08
5.19275e-05
-5.52144e-08
1.04616e-08
5.18746e-05
-1.31176e-08
3.19979e-08
5.17317e-05
6.01529e-08
3.94323e-08
5.14741e-05
1.37046e-07
5.04955e-08
5.10774e-05
2.77298e-07
5.42627e-08
5.09268e-05
2.4485e-07
1.32228e-08
5.08065e-05
4.15328e-07
4.42995e-08
5.03306e-05
6.7419e-07
1.35664e-07
4.9712e-05
1.26482e-06
1.34334e-07
4.86726e-05
2.18859e-06
2.11618e-08
4.71839e-05
3.58335e-06
-6.82659e-09
4.48661e-05