/*--------------------------------*- C++ -*----------------------------------*\
| =========                 |                                                 |
| \\      /  F ield         | OpenFOAM: The Open Source CFD Toolbox           |
|  \\    /   O peration     | Version:  2.1.x                                 |
|   \\  /    A nd           | Web:      www.OpenFOAM.org                      |
|    \\/     M anipulation  |                                                 |
\*---------------------------------------------------------------------------*/
FoamFile
{
    version     2.0;
    format      ascii;
    class       volVectorField;
    location    "0.1";
    object      U;
}
// * * * * * * * * * * * * * * * * * * * * * * * * * * * * * * * * * * * * * //

dimensions      [0 1 -1 0 0 0 0];

internalField   nonuniform List<vector> 
3875
(
(3.05077 0.000280141 0.00321153)
(3.05867 9.91815e-05 0.00366064)
(3.06772 0.00391811 0.00424802)
(3.04414 0.0052867 0.00513128)
(3.02666 0.00441498 0.00393054)
(3.03013 0.0054374 0.00302032)
(3.01271 0.00453337 0.00196503)
(3.02215 -0.00151123 0.00145733)
(3.02771 -0.00219695 0.00231682)
(3.01073 -0.000186842 0.00233674)
(3.01638 0.000239437 -0.00159241)
(3.02086 -0.000302984 -0.0013208)
(3.00848 0.00103399 0.000208547)
(3.01834 0.00195418 -0.000469882)
(3.01147 0.0016474 0.000723706)
(3.01126 0.0015404 0.00250975)
(3.00582 0.000885384 0.003132)
(3.00796 0.000848102 0.00328785)
(2.98971 -0.000354614 0.00319743)
(2.99939 0.00127091 0.00398796)
(2.97785 0.000489543 0.0041706)
(2.97506 7.42711e-05 0.00332236)
(2.97719 0.00251731 0.00403795)
(2.95757 0.0050334 0.00545473)
(2.95104 0.00531781 0.00609767)
(2.93789 0.00438278 0.00518538)
(2.94735 0.00253723 0.00213057)
(2.94536 0.00312926 0.00280598)
(2.93495 0.00404593 0.00286919)
(2.94252 0.00175422 -0.00089759)
(2.95164 0.00212511 -0.00313006)
(2.94977 0.00235878 -0.000335204)
(2.95172 -9.27249e-05 0.00227104)
(2.95394 0.000142427 0.00210851)
(2.93885 0.00108386 -0.000149027)
(2.95085 -0.000692654 -0.00186578)
(2.95252 0.000109597 0.000507014)
(2.93521 0.00105924 0.00144567)
(2.94572 -0.00165577 -0.00371457)
(2.94809 -0.000619119 -0.00614845)
(2.94941 0.00257252 -0.00592019)
(2.93874 0.00497013 -0.00422308)
(2.9193 0.00451732 -0.00320417)
(2.92497 0.00811254 -0.00381019)
(2.89899 0.0040404 -0.00408181)
(2.87594 0.0249527 -0.000174603)
(2.80136 0.0326082 -0.00102088)
(2.71789 0.0754575 -2.84972e-05)
(2.50459 0.110362 -0.00328814)
(2.31815 0.190871 0.00201003)
(3.0954 0.00026304 0.001111)
(3.10382 0.0010639 0.000519924)
(3.12094 0.00346614 -0.000827116)
(3.12204 0.0034478 0.000882898)
(3.1134 0.00214393 0.00251943)
(3.10442 0.000372716 0.00239785)
(3.12686 -0.000670014 0.00264286)
(3.1241 -0.000988422 0.00377015)
(3.09794 -0.00082203 0.00426721)
(3.10371 0.000243986 0.00201219)
(3.10697 -0.00108499 0.00121231)
(3.10877 -0.00111898 0.00218522)
(3.09283 -0.0017668 0.00165445)
(3.1136 -0.00204521 -0.000275164)
(3.11213 -0.00179447 0.000620595)
(3.11065 -0.000482112 0.00280553)
(3.1127 0.0010408 0.00468109)
(3.10119 0.003401 0.00594421)
(3.08115 0.00414493 0.00661703)
(3.09123 0.00664797 0.00422972)
(3.08559 0.00778071 0.00403836)
(3.06397 0.00426811 0.00510448)
(3.07677 0.00316051 0.00389929)
(3.07826 0.0030194 0.00273726)
(3.07878 0.000238541 0.00133855)
(3.08091 -0.00137233 0.00145361)
(3.08018 -0.00230703 0.00251541)
(3.07309 -0.0045074 0.00180835)
(3.07131 -0.00377828 0.000251493)
(3.07265 -0.00236557 -0.000138885)
(3.06657 -0.0018678 -0.00388082)
(3.092 -0.00270883 -0.00134685)
(3.08219 -0.00303168 0.00215683)
(3.06943 -0.000957442 0.00250156)
(3.08736 0.000541763 -0.00103515)
(3.09152 0.00115823 -0.000801978)
(3.07594 0.00192955 4.87713e-05)
(3.08793 0.000819472 -0.0019907)
(3.08906 0.00162448 -0.00298273)
(3.07417 0.00461309 -0.00459837)
(3.09087 0.0116414 -0.0102962)
(3.09216 0.0139703 -0.00840497)
(3.09666 0.0162018 -0.0047498)
(3.10152 0.020262 -0.00459902)
(3.06654 0.03348 -0.000985929)
(3.0415 0.0656482 0.00222731)
(2.97646 0.11949 0.00516064)
(2.91077 0.192415 -0.00093522)
(2.77634 0.332007 0.00511385)
(2.62772 0.486248 -0.00283561)
(3.0971 -7.7856e-05 0.00260547)
(3.10402 0.000744086 0.00307614)
(3.11854 0.00161244 0.00247047)
(3.09502 -0.000822997 0.00199036)
(3.09352 -0.000199681 0.0027401)
(3.08528 -0.00120658 0.00393333)
(3.07363 -0.00442526 0.00321259)
(3.09143 -0.00420903 0.00374527)
(3.09223 -0.00148711 0.00384319)
(3.07907 0.00164093 0.00247206)
(3.09348 -0.0020336 0.00400635)
(3.07298 -0.00262925 0.00432374)
(3.08211 -0.00501766 0.00432731)
(3.07249 -0.00568176 0.00257083)
(3.08339 -0.0031688 0.0016772)
(3.08133 -0.00296931 0.00278682)
(3.07658 -0.00513809 0.00256473)
(3.09289 0.00219105 0.00141663)
(3.08779 0.00484586 0.00253936)
(3.07876 0.00363698 0.00103972)
(3.09783 0.0080921 0.000858318)
(3.08456 0.00895716 0.00281727)
(3.08826 0.00156671 0.00402791)
(3.08835 0.000347903 0.00468089)
(3.07133 0.00216865 0.00568958)
(3.05824 0.00312634 0.00530104)
(3.05528 0.0016404 0.00665089)
(3.02534 0.00082749 0.00729691)
(3.02729 0.00123624 0.000898131)
(3.03238 -0.000320042 -0.000198799)
(3.0377 -0.00316262 0.000937629)
(3.02372 -0.00376385 0.00047551)
(3.03399 -0.00406628 -0.00133394)
(3.0352 -0.00377291 0.000517816)
(3.02215 -0.00274537 0.000989111)
(3.01922 9.63415e-05 -0.000983892)
(3.03104 -0.00143767 -0.00206885)
(3.03129 -0.00190702 -0.00224409)
(3.02379 0.00249822 -0.00250437)
(3.03457 0.00648342 -0.00725673)
(3.04807 0.00844195 -0.0078285)
(3.04909 0.011609 -0.00480729)
(3.05546 0.017944 -0.00192397)
(3.03628 0.0278997 -0.00107032)
(3.03697 0.0516477 0.000406279)
(3.03131 0.0920388 -0.00215472)
(3.0356 0.157681 -0.00335061)
(3.01138 0.267654 -0.00391721)
(2.97182 0.4162 0.00299259)
(2.8733 0.759014 -0.00143038)
(3.09067 -0.000115815 0.00236014)
(3.09814 -0.000564579 0.00363466)
(3.11517 0.00139325 0.00256759)
(3.10865 0.00140625 0.00144651)
(3.10626 -0.000927279 0.00253718)
(3.10611 -0.00117732 0.00299735)
(3.10577 -0.00411513 0.00233921)
(3.10367 -0.00682309 0.00310166)
(3.08657 -0.00419968 0.00366953)
(3.1025 -0.00737734 0.00276756)
(3.10223 -0.0109979 0.00303834)
(3.10599 -0.0092274 0.00416317)
(3.10879 -0.0075513 0.00561625)
(3.09369 -0.00804283 0.00432875)
(3.10285 -0.0056743 0.00347571)
(3.09094 -0.00372012 0.00393768)
(3.06812 -0.000281001 0.00411642)
(3.0471 -0.000998429 0.000735499)
(3.05413 0.00105947 -0.00217852)
(3.05917 0.0011519 -0.00213267)
(3.05934 0.00131136 -0.000835836)
(3.06632 0.00274915 0.000986773)
(3.06629 0.00264236 0.00234551)
(3.06011 0.00316668 0.00224644)
(3.04836 0.00580375 0.00110831)
(3.06498 0.00616534 0.000769659)
(3.06434 0.00620305 0.00162224)
(3.06995 0.0064136 0.00255429)
(3.05864 0.00513893 0.00110294)
(3.07275 0.00240909 0.000317269)
(3.05499 0.0013362 0.000438603)
(3.07046 0.000796923 -0.000802467)
(3.06695 0.00161528 0.00209908)
(3.04343 0.00128765 0.00368701)
(3.04652 0.00205888 0.000997777)
(3.05074 -0.000403977 0.000588826)
(3.04695 -0.00270111 0.00211916)
(3.03421 -0.000585214 0.000418513)
(3.05343 -0.000790985 -0.00350543)
(3.05638 0.000465531 -0.00546527)
(3.06879 0.00583088 -0.00555581)
(3.07332 0.0104487 -0.00351435)
(3.08474 0.0200186 2.136e-05)
(3.09654 0.0302432 0.00282078)
(3.09405 0.042164 0.00160317)
(3.12658 0.07644 4.66479e-05)
(3.16263 0.126631 0.000826158)
(3.22834 0.240938 0.00132098)
(3.31413 0.397507 0.0100587)
(3.28052 0.832279 -0.000998412)
(3.05387 -3.06121e-05 0.0016796)
(3.0635 -0.000340053 0.00343265)
(3.07235 -0.00073315 0.00179196)
(3.07091 -0.00154378 0.00131447)
(3.04615 -0.00282536 0.00279917)
(3.04313 -0.00291063 0.00263974)
(3.04677 -0.00379742 0.00269483)
(3.02722 -0.00431977 0.00562876)
(3.01439 -0.00611939 0.00676209)
(3.00971 -0.00805327 0.0063196)
(2.98762 -0.0088765 0.00677754)
(2.9577 -0.00961233 0.0082394)
(2.9413 -0.00878446 0.00993553)
(2.92273 -0.00809014 0.0121858)
(2.89992 -0.00920784 0.00852279)
(2.89761 0.00218245 0.00353493)
(2.90401 0.0070218 0.00137442)
(2.90917 0.00724149 0.000833389)
(2.9032 0.00661694 0.000287244)
(2.91785 0.00493251 -0.00305179)
(2.91782 0.00401312 -0.00252841)
(2.92516 0.00306005 -0.000624734)
(2.92776 0.00223464 -0.000648021)
(2.93355 0.00239197 -0.000623313)
(2.93745 0.00117382 -0.000208262)
(2.94131 -0.00133599 -0.000755714)
(2.93889 -0.00222472 -0.000630984)
(2.94019 -0.00176 0.000397266)
(2.94161 -0.00249247 -0.000210701)
(2.94024 -0.00256841 -0.000623326)
(2.94381 -0.00225451 -0.000324655)
(2.94403 -0.00203074 -0.00122847)
(2.9458 0.000136284 -0.000796863)
(2.94563 0.0017973 -0.000128384)
(2.94767 0.000875954 -0.00107801)
(2.94766 -0.000177955 -0.00144274)
(2.94496 -0.000615001 -0.00108524)
(2.94466 -0.00227859 -0.00127838)
(2.94185 -0.00116928 -0.00267939)
(2.93717 0.00171012 -0.00665122)
(2.96092 0.00457472 -0.00856)
(2.96789 0.00626203 -0.00609626)
(2.98588 0.00911024 -0.00254562)
(3.00854 0.0123041 -0.00190891)
(3.01789 0.0191973 -0.00264772)
(3.10826 0.0362412 -0.0021823)
(3.12727 0.0581013 -0.00199932)
(3.39254 0.105461 4.54052e-05)
(3.44659 0.178372 -0.00753283)
(4.26704 0.47493 0.00868759)
(3.10187 -0.00177392 0.000541652)
(3.14434 -0.00171102 0.00142546)
(3.13559 -0.00158458 0.00160994)
(3.14614 0.00133278 0.00514967)
(3.11781 0.00267431 0.00552997)
(3.13274 0.00472078 0.00253958)
(3.11681 0.00405939 0.00147345)
(3.13305 0.000932271 -0.00215442)
(3.13678 0.000374795 0.00136289)
(3.12956 0.00126204 0.00515982)
(3.12757 0.00276731 0.00327004)
(3.10308 0.00352475 0.00307337)
(3.10695 0.00295154 0.00235419)
(3.09187 0.0017682 0.00186291)
(3.10271 4.32879e-05 0.000972666)
(3.10065 -0.000175634 0.00143091)
(3.10261 0.000387488 0.0031319)
(3.10479 0.00187835 0.0031916)
(3.09262 0.000519068 0.00139659)
(3.10618 -0.000905425 0.000239526)
(3.10617 -0.000852899 0.00180469)
(3.09432 -0.000652216 0.00101348)
(3.11302 0.00143389 0.00187332)
(3.09516 0.00245866 0.00483863)
(3.10114 -0.000908849 0.00401351)
(3.11165 -0.000411226 0.000261804)
(3.11625 0.00245558 -0.00081634)
(3.10159 0.0026603 0.000354689)
(3.11883 0.000929456 0.000243398)
(3.1219 0.0011379 -0.00181412)
(3.1129 0.00169045 -0.00458842)
(3.10192 0.000957412 -0.00250994)
(3.12288 -0.000506342 0.00111509)
(3.12464 1.67255e-05 0.00130971)
(3.12956 0.00120975 -0.000337292)
(3.10991 0.00100366 -0.00260072)
(3.12383 0.00060099 0.000908085)
(3.12514 0.000321991 0.00163482)
(3.12568 0.000301733 0.000180408)
(3.10561 0.000839571 0.00142064)
(3.09756 0.00131466 0.000882714)
(3.09738 0.0041573 0.000808676)
(3.07222 0.00620521 0.000482389)
(3.07287 0.0105327 -0.000678777)
(3.03709 0.00572977 -0.00200391)
(3.01045 0.0328138 0.000624505)
(2.93076 0.0337199 0.000207149)
(2.84593 0.0804124 0.00592069)
(2.62741 0.106421 0.00658427)
(2.44981 0.19317 0.0130831)
(3.1301 -0.000306256 0.00294634)
(3.14471 0.000797043 0.00273271)
(3.13766 0.000685632 2.79149e-05)
(3.13247 -5.72826e-05 0.00167504)
(3.14042 0.000272105 0.0023671)
(3.14173 0.00151919 -0.000845844)
(3.17719 0.000284349 -0.00289023)
(3.17796 -0.000368777 0.00164864)
(3.18107 -0.000320054 0.00669024)
(3.1852 0.00086848 0.00528369)
(3.18287 0.00314834 0.00376565)
(3.18564 0.00315779 0.00445818)
(3.188 0.00228198 0.00197743)
(3.19008 0.00234749 -0.00114455)
(3.18766 0.00144884 -0.000972151)
(3.19456 0.00082383 0.00231194)
(3.19718 0.000918122 0.00609508)
(3.185 0.00201464 0.00661048)
(3.20764 0.00595066 0.00430685)
(3.21386 0.00592104 0.00190204)
(3.21528 0.00451738 0.000649298)
(3.20466 0.00405834 0.00131051)
(3.22797 0.00286316 -0.00149588)
(3.23118 0.00396598 -0.000411233)
(3.23058 0.00294596 0.000889746)
(3.21574 -6.65771e-05 -0.000165453)
(3.23337 0.00167795 0.00271008)
(3.23308 0.000778885 0.0022625)
(3.24086 -0.00246744 -6.48319e-05)
(3.24646 -0.00194666 -0.00131995)
(3.23495 0.00108055 -0.00265979)
(3.21927 -0.00125743 -0.00170316)
(3.24566 -0.00737478 0.00176785)
(3.24999 -0.00407549 0.00178731)
(3.25363 0.00121436 0.00155089)
(3.23308 0.00164837 0.00161148)
(3.24851 -0.00160363 0.00273186)
(3.24996 -0.00184788 0.00162311)
(3.24913 0.000480186 0.00140109)
(3.2429 0.00292298 0.00142069)
(3.2229 0.00567552 -0.000340126)
(3.20055 0.0111968 -0.00221291)
(3.21655 0.0163131 -0.00473257)
(3.20165 0.0177151 -0.00567433)
(3.1668 0.0350599 -0.00106989)
(3.15398 0.0666131 0.00250547)
(3.10795 0.116348 0.00587066)
(3.04769 0.174403 0.00169723)
(2.91602 0.327527 0.00669384)
(2.78042 0.455343 0.00319117)
(3.14303 0.001186 0.0011623)
(3.1853 0.00392205 1.18431e-05)
(3.1899 0.00491759 0.000533155)
(3.18109 0.00192176 0.00339078)
(3.15987 -0.00128407 0.00302242)
(3.17528 -0.00337629 0.00433661)
(3.16153 -0.00276991 0.00154162)
(3.185 -0.00553897 0.00176865)
(3.18785 -0.00274955 0.00453878)
(3.17195 0.00218173 0.00364819)
(3.19119 -2.68906e-05 0.00389333)
(3.19401 -0.00154028 0.00589333)
(3.18185 -0.000381662 0.00389569)
(3.20221 0.000992132 0.00131267)
(3.20151 -0.000392815 0.00125919)
(3.20348 -0.00104894 0.00303551)
(3.20618 -0.00205914 0.00397893)
(3.19573 -0.00583993 0.00147637)
(3.2179 -0.00605985 -0.000959545)
(3.22094 -0.00272102 -0.0029843)
(3.22482 0.000445912 -0.00399889)
(3.22873 0.00210181 -0.00220986)
(3.21703 0.000731625 0.000806975)
(3.23648 -0.00157326 0.00408226)
(3.23626 0.000601453 0.00497795)
(3.2416 0.00270029 0.00580817)
(3.23989 0.00313001 0.00541355)
(3.24482 0.00284615 0.00246575)
(3.24633 0.0020394 -0.00160094)
(3.22374 0.00136067 -0.0032984)
(3.24382 0.000743078 -0.000659719)
(3.24821 -0.000995186 -0.000793729)
(3.23504 -0.00248889 -0.00131395)
(3.21793 -0.00119666 0.00135294)
(3.24348 0.00189183 -1.26076e-05)
(3.24916 0.001873 -0.000127809)
(3.25027 0.000699784 0.00113981)
(3.22894 0.000644117 0.00246683)
(3.24023 0.00313681 6.38989e-05)
(3.24042 0.00566719 -0.0013121)
(3.22385 0.00889586 -0.000393762)
(3.24263 0.0159383 -0.00368462)
(3.24761 0.0208532 -0.00401099)
(3.22979 0.0326784 -0.000923713)
(3.22314 0.0519386 0.00100718)
(3.22271 0.0895532 0.00200737)
(3.19726 0.139541 -0.0009788)
(3.19397 0.258462 8.07897e-05)
(3.11651 0.398814 -0.00188138)
(3.02889 0.720458 0.001345)
(3.13797 -0.000975566 0.00089993)
(3.16094 -0.00102391 0.000522928)
(3.18421 4.90337e-05 -0.000550236)
(3.17656 -0.000343758 0.00111565)
(3.17643 0.000628968 0.00147007)
(3.18577 -0.0010956 0.00181039)
(3.19125 -0.00506412 0.00286221)
(3.18754 -0.0051209 0.00467984)
(3.16715 -0.00177827 0.00555511)
(3.1914 -0.00405631 0.00343491)
(3.17458 -0.00532506 0.00215246)
(3.19548 -0.00597351 0.00179937)
(3.18126 -0.00372613 0.000689387)
(3.20627 -0.0020469 0.0011505)
(3.20358 -0.00232703 0.0025418)
(3.20591 -0.000929092 0.00624435)
(3.21362 0.00046262 0.00875591)
(3.18008 -0.00124769 0.00981995)
(3.17862 -0.00155281 0.00386192)
(3.16209 0.000734443 0.000609729)
(3.17314 0.00149714 -0.000687335)
(3.15779 0.0025835 0.00151825)
(3.18138 -0.000136917 0.00365014)
(3.16456 0.00042443 0.00381676)
(3.17773 0.00111726 0.00153733)
(3.16768 -0.001456 0.000580351)
(3.18786 -0.000364664 0.000630039)
(3.19569 0.00164793 0.00137061)
(3.20272 0.00113313 -0.000418976)
(3.20988 -0.000140424 -0.00167999)
(3.21578 -0.00154578 -0.00152851)
(3.19413 -0.00238564 -0.000279889)
(3.21927 0.000788568 0.00494341)
(3.20015 0.000586549 0.00552793)
(3.22029 -0.00167472 0.000527969)
(3.20388 -0.00185638 -0.00161488)
(3.22414 -0.000852638 0.00166368)
(3.22761 -0.00067257 0.00096478)
(3.23175 -0.000321916 -0.0026406)
(3.23384 0.00165921 -0.00578972)
(3.22384 0.00406336 -0.00731069)
(3.2323 0.0105829 -0.00699799)
(3.22582 0.0147982 -0.00481872)
(3.26952 0.031823 -0.00016961)
(3.29142 0.0488411 0.00178996)
(3.29291 0.0695336 0.000179561)
(3.38392 0.151018 -0.00163244)
(3.39736 0.204012 -9.30374e-06)
(3.53819 0.512114 0.00482983)
(3.56552 0.665714 0.0066294)
(3.09786 -0.000699633 0.000110353)
(3.11198 -0.000990563 6.05347e-05)
(3.13202 -0.0018497 -0.00119296)
(3.11189 -0.00176643 -0.000219413)
(3.11112 -0.00136096 0.00250961)
(3.117 -0.00215585 0.00251411)
(3.11788 -0.00318175 0.00538703)
(3.10166 -0.00115482 0.00806204)
(3.11928 -0.00210901 0.00896103)
(3.10015 -0.00328126 0.00717494)
(3.10781 -0.00501841 0.00838968)
(3.10136 -0.00408315 0.00911401)
(3.09888 -0.00108073 0.00825076)
(3.11994 -0.00116184 0.00582086)
(3.12476 -0.00101759 0.0051868)
(3.12258 0.00105809 0.00424114)
(3.12707 0.00393557 0.00374955)
(3.12704 0.00567427 0.00305763)
(3.13174 0.00533071 -0.00049895)
(3.13635 0.0037235 -0.00245844)
(3.12039 0.00194565 -0.00154795)
(3.13211 0.00113976 -0.0015547)
(3.13184 -0.000506827 -0.0014469)
(3.12037 0.000385411 -0.00127392)
(3.13778 0.000692473 -0.00217004)
(3.128 -0.00237603 9.54472e-05)
(3.1103 -0.00466505 0.0027113)
(3.114 -0.00161775 0.002045)
(3.12281 -0.00166593 0.000554814)
(3.10836 -0.00254952 -0.000643837)
(3.12248 0.000384578 -0.00343778)
(3.13117 -0.000542152 -0.00268875)
(3.11156 -0.00204079 0.000880137)
(3.12563 0.000118684 0.00393281)
(3.12502 6.80193e-05 0.00166822)
(3.12624 -0.00125852 -0.00158227)
(3.12773 -0.00242076 -0.00222897)
(3.12035 -0.00265308 -0.000468576)
(3.12032 -0.00113108 0.000127316)
(3.11888 0.000650855 -0.00185778)
(3.09699 0.00140873 -0.00358935)
(3.11798 0.00647751 -0.00150311)
(3.12452 0.0068589 -0.00139599)
(3.13589 0.00899212 -0.00277056)
(3.14683 0.0204107 -0.00234361)
(3.23279 0.0344513 -0.00181006)
(3.24827 0.0539056 -0.0011195)
(3.5039 0.103227 0.00154798)
(3.55723 0.16128 0.00130225)
(4.33573 0.512236 0.00835625)
(3.09435 0.00265563 -0.00328149)
(3.10392 0.00277846 -0.00409261)
(3.1222 0.00210817 -0.00086039)
(3.10055 0.0033196 -0.000309904)
(3.11145 0.000318272 -0.000347773)
(3.11654 0.000716808 -0.00217189)
(3.12222 0.00335396 -0.00295696)
(3.11054 0.0043377 -0.00207958)
(3.09106 0.00339366 0.00136868)
(3.10785 -0.000308467 0.0038372)
(3.1121 -0.000107047 0.00523741)
(3.10897 -1.46218e-05 0.00682348)
(3.11487 -0.00124037 0.00564793)
(3.11371 -0.00161326 0.0034496)
(3.11827 -0.00112693 0.00157681)
(3.11505 0.000507921 0.001647)
(3.11498 0.0023185 0.00280898)
(3.11325 0.00361291 0.00382458)
(3.10676 0.0012251 0.000848779)
(3.09848 -0.00293777 -0.00320171)
(3.11534 -0.00402736 -0.00034091)
(3.11937 -0.00356862 -0.00101212)
(3.11119 -0.00113579 -0.00162774)
(3.12795 -0.000485017 6.29287e-05)
(3.13064 -0.000528184 -0.000751187)
(3.12958 0.00241735 -0.00173051)
(3.1155 0.0030947 -0.00159901)
(3.13183 0.00117283 -0.00252705)
(3.13184 0.00240992 -0.00344181)
(3.13193 0.00374452 -0.000792234)
(3.13655 0.00398066 0.00092156)
(3.11548 0.00346173 -0.000211319)
(3.12603 -0.000574636 -0.000930892)
(3.12772 -1.86712e-05 0.00047981)
(3.1229 0.00288822 0.0026149)
(3.11435 0.00384733 0.00217102)
(3.09671 0.00292158 0.000209318)
(3.11111 0.000263788 -0.000131262)
(3.09911 0.000874591 0.00210704)
(3.11351 0.00093593 0.00320955)
(3.12068 0.00113647 0.00351576)
(3.10657 0.00148537 0.00498717)
(3.10404 0.00344857 0.00250734)
(3.10131 0.00635401 0.0037358)
(3.07891 0.00361535 0.0043124)
(3.04736 0.0311891 0.00369333)
(2.96045 0.0323964 0.00278561)
(2.88218 0.078724 0.00889238)
(2.68496 0.099565 0.0108756)
(2.5209 0.185466 0.0174358)
(3.14057 0.000879515 -0.000701787)
(3.18697 0.00102189 -0.000540616)
(3.16962 0.00133894 0.000182461)
(3.17661 0.00307066 0.000821265)
(3.177 0.00202538 -0.000737607)
(3.16764 0.00185596 -0.00466484)
(3.17399 0.000459045 -0.00428664)
(3.16777 0.00282871 0.00113917)
(3.19364 0.00211769 0.000674013)
(3.20025 -0.000508902 0.000304901)
(3.19708 -0.000232347 0.00318957)
(3.20168 0.000889951 0.00544029)
(3.20009 0.000357717 0.00450112)
(3.1856 -0.00108094 0.000583392)
(3.18859 -0.00111548 -0.00192288)
(3.17225 -0.00022395 -0.00216017)
(3.19063 0.00101224 0.00408597)
(3.1971 0.00144718 0.00408105)
(3.20813 0.00256312 -0.000472547)
(3.2029 0.00161095 -0.00204478)
(3.2009 0.000321994 -0.000304275)
(3.19686 0.00113167 -0.00121185)
(3.17487 0.00205902 -0.0026975)
(3.18948 3.33806e-05 -0.00239621)
(3.18829 0.00096458 -0.000921762)
(3.17368 0.00316942 -0.000737628)
(3.19442 0.00497958 -0.0027704)
(3.1974 0.00110318 -0.00270374)
(3.18799 -0.00255385 -0.00485327)
(3.21746 -0.000759139 -0.00239394)
(3.20003 0.00246109 -0.000512387)
(3.21392 0.00154907 -0.00166624)
(3.22437 -0.000161619 -0.00265299)
(3.20388 0.000937457 -0.00237885)
(3.22052 0.00192034 0.00176466)
(3.22425 0.00313964 0.00150792)
(3.23214 0.00415697 -0.000320016)
(3.23379 0.0025584 -0.000849914)
(3.21756 0.00238397 -0.000550828)
(3.2426 0.00435466 0.000283906)
(3.22311 0.00444015 -9.68662e-05)
(3.23474 0.00790842 -0.00661327)
(3.2393 0.0126915 -0.0060349)
(3.22086 0.015603 -0.00017176)
(3.17605 0.0314553 0.000439299)
(3.15794 0.0709311 -0.00060453)
(3.11392 0.121126 -0.0012066)
(3.05719 0.181287 0.00111081)
(2.92975 0.311886 0.00253601)
(2.79556 0.454798 0.00706734)
(3.14079 -0.00210022 -0.000513193)
(3.16239 -0.00239019 -0.00105593)
(3.15084 -0.000211397 -0.0015312)
(3.16863 -0.00035695 -0.00115968)
(3.17011 -0.000306944 -0.000786806)
(3.17786 -0.000184684 -0.000681495)
(3.18485 -0.00123058 -0.00234059)
(3.16412 -0.000909959 -0.000502548)
(3.1878 -0.000700949 0.00318224)
(3.19124 -0.00107455 0.00282025)
(3.17767 -0.000521699 0.00314224)
(3.20099 -0.00392833 0.00701059)
(3.20904 -0.00438138 0.00517003)
(3.20914 -0.00118376 0.000993496)
(3.21462 0.00122318 0.00105963)
(3.21208 0.00150626 0.00312795)
(3.21487 0.000176169 0.00495434)
(3.21881 -0.000217238 0.00329276)
(3.19959 0.000455641 -0.000732277)
(3.21556 0.00221329 -0.00432162)
(3.1934 0.00340707 -0.00242514)
(3.20031 0.00636817 0.000320713)
(3.19432 0.00510855 -0.000531055)
(3.19495 -0.00180804 0.00035932)
(3.2006 -0.00191432 0.00415976)
(3.19709 6.58305e-05 0.00419142)
(3.22104 0.000529685 0.00152902)
(3.21839 0.000690504 0.000444039)
(3.20739 0.000131041 0.00108764)
(3.18926 -0.00102842 0.00199084)
(3.21138 -0.00194336 -0.000564444)
(3.21415 -0.00161199 -0.000898626)
(3.21784 0.00121557 0.00102107)
(3.22278 0.00261282 0.00181329)
(3.20449 -0.00128265 0.00021714)
(3.18992 -0.00316193 -0.00177685)
(3.20996 -0.00231376 -5.39079e-05)
(3.21989 -0.000148916 -0.00209492)
(3.22757 -0.000633087 -0.00380893)
(3.22233 -0.000101329 -0.0033755)
(3.25088 0.00473507 -0.00220713)
(3.23854 0.00521223 -0.00142559)
(3.21658 0.0124222 -0.00211819)
(3.20142 0.0301607 -0.00282141)
(3.19634 0.0522081 -0.00296247)
(3.19684 0.0910786 -0.00382511)
(3.18974 0.139659 -0.00237739)
(3.19144 0.254319 -0.00397915)
(3.1293 0.397386 0.000725237)
(3.05445 0.710164 0.00132477)
(3.13451 -0.00117721 -0.00030689)
(3.15293 -0.00036895 -0.00104161)
(3.1437 0.000844418 -0.00234904)
(3.1594 -0.0048429 -0.00366616)
(3.15367 -0.00369713 -0.00159211)
(3.15041 -0.00267464 -0.00118348)
(3.1682 0.000463975 -0.0037536)
(3.16006 0.000726941 0.000908639)
(3.18481 -0.00336583 0.00407313)
(3.19015 -0.00366191 0.00295769)
(3.19439 -0.00517157 0.00321351)
(3.19017 -0.00644291 0.00401882)
(3.17612 -0.00414187 0.00217913)
(3.15803 -0.00341754 -0.00153087)
(3.17433 -0.00402631 0.000711102)
(3.16187 -0.00343367 0.00183371)
(3.18233 -0.000135599 0.00743428)
(3.16739 -0.000509003 0.00769615)
(3.19205 -0.00137804 0.00405329)
(3.17346 -0.000770825 0.00213131)
(3.18603 0.00155921 2.47149e-05)
(3.17711 0.000255049 -0.000375781)
(3.20312 -0.000783628 -0.000943744)
(3.21357 -0.00289635 0.000437158)
(3.18736 -0.00233438 0.00361529)
(3.19884 -0.00176527 0.00163249)
(3.20331 -0.000415219 -0.000611276)
(3.20286 0.00333442 -0.00291894)
(3.21179 0.00423027 -0.00493824)
(3.21617 0.00100928 -0.00478506)
(3.20403 -0.000517957 -0.00311154)
(3.2096 -0.0014884 -0.00349468)
(3.20255 -0.00213409 -0.0018045)
(3.231 0.00153828 -0.00242663)
(3.23173 0.00191912 -0.0029054)
(3.20946 -0.00252083 -0.00172564)
(3.22493 -0.00690981 -0.00433016)
(3.22439 -0.00523311 -0.00400666)
(3.23012 -0.00119021 -0.00179019)
(3.20835 0.00085298 -0.00162978)
(3.20177 0.00162878 -0.00247717)
(3.17937 0.00695552 -0.00450545)
(3.2022 0.0220298 -0.00554659)
(3.21011 0.0298005 -0.00585099)
(3.22121 0.0460322 -0.00521693)
(3.2843 0.0836826 -0.00361264)
(3.29964 0.12184 -0.00417571)
(3.36454 0.224944 -0.00106418)
(3.44406 0.394255 -0.00213395)
(3.43817 0.802705 -0.00132694)
(3.09536 -0.000820509 -0.00162873)
(3.10537 -0.000327145 -0.00369879)
(3.12037 -0.00154123 -0.00364487)
(3.10835 -0.00380171 -0.00138701)
(3.08325 -0.00223693 0.0019745)
(3.09882 -0.000752685 -0.000519229)
(3.09082 -0.000408249 -0.00141244)
(3.11672 -0.000433293 0.000771587)
(3.11772 -0.00200942 0.00180801)
(3.12194 -0.0027404 0.00352731)
(3.11894 -0.00277135 0.00405725)
(3.10276 -0.00345288 0.00513084)
(3.11642 0.00124624 0.00306555)
(3.11409 -0.000969221 -0.00107887)
(3.10096 -0.00352124 -0.000921898)
(3.11445 -0.00228961 0.000638761)
(3.10459 -0.00194495 0.00161982)
(3.11306 0.000169651 0.00128111)
(3.11109 -0.000202616 0.000743164)
(3.0975 0.00150751 -0.000328708)
(3.11628 0.00323397 -0.00383899)
(3.11319 0.00133615 -0.00386459)
(3.11392 -0.00172338 -0.00212206)
(3.1108 -0.00211642 0.000104793)
(3.09707 0.0010724 0.000762793)
(3.09307 0.00026907 0.00432202)
(3.08514 -0.00229436 0.0036333)
(3.09807 -0.000547925 -0.00196215)
(3.09735 -0.00116082 -0.00436444)
(3.10374 -0.00241289 -0.00562468)
(3.10857 -0.00329827 -0.0049944)
(3.09261 -0.00319537 -0.002054)
(3.09339 -0.00293967 0.00169171)
(3.08038 -0.002318 0.000699825)
(3.09566 0.00180389 0.000434157)
(3.09174 0.00087869 0.00128795)
(3.06563 -0.00284932 0.000246825)
(3.07051 -0.00203494 0.000860985)
(3.06041 0.000720044 0.000716684)
(3.08183 0.0070447 0.00436576)
(3.08139 0.00729077 0.00192551)
(3.07971 0.00808167 -0.00371818)
(3.10602 0.0108187 -0.0014601)
(3.12438 0.0113346 -0.00186096)
(3.13115 0.0153908 -0.00260902)
(3.22083 0.0321614 -0.00218816)
(3.23627 0.054579 -0.00177509)
(3.50519 0.105036 -0.00076618)
(3.55557 0.165033 -0.00183068)
(4.36889 0.491389 -0.000965776)
(3.09147 0.000874083 -0.00146921)
(3.10183 0.000192284 -0.00152211)
(3.11877 0.000371866 -0.00329685)
(3.11286 0.00135602 -0.00554857)
(3.11283 0.00111595 -0.00668811)
(3.11835 0.00150323 -0.00455668)
(3.09459 0.00341402 -0.00205607)
(3.09871 0.00465222 0.00250419)
(3.08303 0.00266559 0.00279611)
(3.09639 -0.00262604 -0.000670007)
(3.0976 -0.000413175 0.000748749)
(3.0855 0.00105409 0.00316397)
(3.10315 0.000980756 0.00335838)
(3.08774 0.0012367 -1.73357e-05)
(3.10514 -0.00100774 -0.000998741)
(3.10449 -0.000127007 -0.00127936)
(3.11094 0.00263843 -0.00270076)
(3.11388 0.00381988 -0.00247158)
(3.12068 0.00429335 -0.00129667)
(3.10081 0.00285985 -0.00277969)
(3.11655 0.00254717 -0.00403005)
(3.09813 0.00374749 -0.0020356)
(3.10015 0.00157883 -0.00285563)
(3.10303 0.0012071 -0.00374136)
(3.10566 0.00304049 -0.00385498)
(3.10162 0.00440355 -0.00564885)
(3.10531 0.00505738 -0.00880287)
(3.10829 0.00499859 -0.00946174)
(3.09031 0.00298449 -0.00683709)
(3.09626 0.00109414 -0.00168191)
(3.08677 0.00226087 -0.00173589)
(3.08601 0.000721569 -0.00358884)
(3.10484 -0.00291913 -0.005195)
(3.11002 -0.00181369 -0.00293243)
(3.10731 7.0992e-05 0.00157592)
(3.1104 0.000662773 0.00158361)
(3.11235 0.00159168 -0.00140332)
(3.10963 0.00116434 -0.00327728)
(3.10918 -2.93378e-05 -0.00374948)
(3.10977 -0.00120601 -0.00284257)
(3.10103 -0.00303185 -0.000153644)
(3.11369 -0.00309858 -0.00180575)
(3.09678 -0.000305032 -0.00430842)
(3.10507 0.00764448 -0.000597295)
(3.08406 0.00424464 0.00121575)
(3.05643 0.0292478 0.00717072)
(2.97921 0.0287358 0.00801838)
(2.90711 0.0750005 0.00795532)
(2.71672 0.0962231 0.00645753)
(2.56247 0.180311 0.0113909)
(3.13056 0.00248253 -0.00369088)
(3.14661 0.00355874 -0.00395486)
(3.14051 0.00177967 -0.002023)
(3.1578 -0.00178555 -0.00608045)
(3.15713 -0.0011683 -0.00499109)
(3.14819 0.00288648 -0.00259811)
(3.13885 0.00311086 0.000824344)
(3.16394 0.00110279 -0.000775953)
(3.16627 0.000843974 -0.00311157)
(3.15635 0.000363363 0.000626148)
(3.14942 0.000948819 0.00411604)
(3.17636 0.000971805 0.00319284)
(3.17985 -0.000152824 0.00426756)
(3.1871 -0.00144718 0.00359422)
(3.18982 -0.000960444 0.00112024)
(3.17863 4.67377e-05 -0.000773655)
(3.19567 0.00209855 -0.00160507)
(3.19955 0.00227021 -0.000608977)
(3.20838 0.0020348 0.00049133)
(3.21138 0.00197156 0.000536681)
(3.22056 0.00274725 0.00212413)
(3.22212 0.0033284 0.00494352)
(3.21313 0.00273824 0.00222365)
(3.20662 0.00204669 -0.00216005)
(3.2042 0.00336797 -0.000457901)
(3.21201 0.00503907 -0.00292492)
(3.2103 0.00508581 -0.0063164)
(3.23357 0.00328603 -0.00633544)
(3.23871 0.00274546 -0.0068307)
(3.2267 0.00227609 -0.0089076)
(3.25029 4.12065e-05 -0.00664536)
(3.25211 -0.00232021 -0.00533389)
(3.25737 -0.00245616 -0.00351884)
(3.23581 -0.000736538 -0.000133216)
(3.24649 0.00103313 0.00316867)
(3.22858 0.000330687 0.00070933)
(3.24181 -0.000800581 -0.00124522)
(3.2481 -0.00298269 0.000188772)
(3.24241 -0.00288397 -0.000216457)
(3.23979 -0.00031532 -0.000858511)
(3.22966 0.00346333 -0.00110765)
(3.20311 0.00769729 0.000324381)
(3.17714 0.0110644 0.0018522)
(3.19274 0.0236586 0.00621189)
(3.15602 0.0303534 0.00724373)
(3.12901 0.0609401 0.00665364)
(3.0725 0.112505 0.000777153)
(3.01156 0.169838 -1.74175e-05)
(2.88016 0.320137 -0.00499846)
(2.74411 0.451277 -0.000695337)
(3.14124 0.0015546 -0.0015989)
(3.18369 0.00338024 -0.00115745)
(3.1888 0.00180525 -0.0023605)
(3.18113 -0.000726043 -0.00475646)
(3.15872 0.000377556 -0.0045529)
(3.17898 -0.000587845 -0.00162969)
(3.18313 -0.00292262 -0.000279774)
(3.16926 -0.00186908 -0.000820567)
(3.18579 0.00235383 -0.004732)
(3.17392 0.0017201 -0.000807483)
(3.1879 -3.06455e-05 0.000435536)
(3.17758 -0.00126674 0.000307313)
(3.19936 -0.00345966 0.00140315)
(3.17948 -0.00306289 0.00120777)
(3.18885 0.000921474 0.00196369)
(3.19216 0.000657643 0.00220032)
(3.19454 -0.000700271 0.00174523)
(3.20092 -0.00212194 0.00227152)
(3.20303 -0.00164027 0.000684633)
(3.18606 -0.00154386 0.000436766)
(3.205 -0.000920771 -0.000103228)
(3.20919 -6.86628e-06 -0.000257012)
(3.21678 0.000672869 0.000607644)
(3.21956 0.00150786 0.00144567)
(3.22895 0.00205533 0.000996579)
(3.2312 0.00273578 -0.00241827)
(3.23761 0.00146599 -0.00429465)
(3.2418 1.36194e-05 -0.00121497)
(3.2314 -0.000336937 0.00262969)
(3.25849 -0.00216387 0.0012028)
(3.26244 -0.00146033 -0.00281835)
(3.25425 -0.000783015 -0.00433883)
(3.25802 0.00139568 -0.00384333)
(3.2603 -0.000819092 -0.0012647)
(3.282 -0.0017578 0.0031197)
(3.2818 -0.000632945 0.00164226)
(3.28275 -0.00098399 1.75815e-05)
(3.27839 0.000495176 -0.00082425)
(3.24429 0.00373942 -0.000784518)