# vtk DataFile Version 2.0
sampleSurface
ASCII
DATASET POLYDATA
POINTS 502 float
-0.0206 0 -0.0005
-0.0190172 0 -0.0005
-0.0190172 0 0.0005
-0.0206 0 0.0005
-0.0174976 0 -0.0005
-0.0174976 0 0.0005
-0.0160387 0 -0.0005
-0.0160387 0 0.0005
-0.0146381 0 -0.0005
-0.0146381 0 0.0005
-0.0132934 0 -0.0005
-0.0132934 0 0.0005
-0.0120025 0 -0.0005
-0.0120025 0 0.0005
-0.0107632 0 -0.0005
-0.0107632 0 0.0005
-0.00957337 0 -0.0005
-0.00957337 0 0.0005
-0.00843108 0 -0.0005
-0.00843108 0 0.0005
-0.00733443 0 -0.0005
-0.00733443 0 0.0005
-0.0062816 0 -0.0005
-0.0062816 0 0.0005
-0.00527083 0 -0.0005
-0.00527083 0 0.0005
-0.00430044 0 -0.0005
-0.00430044 0 0.0005
-0.00336883 0 -0.0005
-0.00336883 0 0.0005
-0.00247443 0 -0.0005
-0.00247443 0 0.0005
-0.00161577 0 -0.0005
-0.00161577 0 0.0005
-0.000791418 0 -0.0005
-0.000791418 0 0.0005
0 0 -0.0005
0 0 0.0005
0 -0.005 -0.0005
0 -0.005 0.0005
0 -0.00423364 0.0005
0 -0.00423364 -0.0005
0 -0.00353089 0.0005
0 -0.00353089 -0.0005
0 -0.00288647 0.0005
0 -0.00288647 -0.0005
0 -0.00229553 0.0005
0 -0.00229553 -0.0005
0 -0.00175363 0.0005
0 -0.00175363 -0.0005
0 -0.00125671 0.0005
0 -0.00125671 -0.0005
0 -0.000801036 0.0005
0 -0.000801036 -0.0005
0 -0.000383178 0.0005
0 -0.000383178 -0.0005
0 -0.0254 -0.0005
0 -0.0254 0.0005
0 -0.0242667 0.0005
0 -0.0242667 -0.0005
0 -0.0231333 0.0005
0 -0.0231333 -0.0005
0 -0.022 0.0005
0 -0.022 -0.0005
0 -0.0208667 0.0005
0 -0.0208667 -0.0005
0 -0.0197333 0.0005
0 -0.0197333 -0.0005
0 -0.0186 0.0005
0 -0.0186 -0.0005
0 -0.0174667 0.0005
0 -0.0174667 -0.0005
0 -0.0163333 0.0005
0 -0.0163333 -0.0005
0 -0.0152 0.0005
0 -0.0152 -0.0005
0 -0.0140667 0.0005
0 -0.0140667 -0.0005
0 -0.0129333 0.0005
0 -0.0129333 -0.0005
0 -0.0118 0.0005
0 -0.0118 -0.0005
0 -0.0106667 0.0005
0 -0.0106667 -0.0005
0 -0.00953333 0.0005
0 -0.00953333 -0.0005
0 -0.0084 0.0005
0 -0.0084 -0.0005
0 -0.00726667 0.0005
0 -0.00726667 -0.0005
0 -0.00613333 0.0005
0 -0.00613333 -0.0005
0.000528387 -0.0254 -0.0005
0.000528387 -0.0254 0.0005
0.00106088 -0.0254 -0.0005
0.00106088 -0.0254 0.0005
0.00159752 -0.0254 -0.0005
0.00159752 -0.0254 0.0005
0.00213833 -0.0254 -0.0005
0.00213833 -0.0254 0.0005
0.00268334 -0.0254 -0.0005
0.00268334 -0.0254 0.0005
0.00323259 -0.0254 -0.0005
0.00323259 -0.0254 0.0005
0.00378611 -0.0254 -0.0005
0.00378611 -0.0254 0.0005
0.00434393 -0.0254 -0.0005
0.00434393 -0.0254 0.0005
0.00490609 -0.0254 -0.0005
0.00490609 -0.0254 0.0005
0.00547262 -0.0254 -0.0005
0.00547262 -0.0254 0.0005
0.00604356 -0.0254 -0.0005
0.00604356 -0.0254 0.0005
0.00661893 -0.0254 -0.0005
0.00661893 -0.0254 0.0005
0.00719878 -0.0254 -0.0005
0.00719878 -0.0254 0.0005
0.00778313 -0.0254 -0.0005
0.00778313 -0.0254 0.0005
0.00837203 -0.0254 -0.0005
0.00837203 -0.0254 0.0005
0.00896551 -0.0254 -0.0005
0.00896551 -0.0254 0.0005
0.0095636 -0.0254 -0.0005
0.0095636 -0.0254 0.0005
0.0101663 -0.0254 -0.0005
0.0101663 -0.0254 0.0005
0.0107738 -0.0254 -0.0005
0.0107738 -0.0254 0.0005
0.0113859 -0.0254 -0.0005
0.0113859 -0.0254 0.0005
0.0120028 -0.0254 -0.0005
0.0120028 -0.0254 0.0005
0.0126245 -0.0254 -0.0005
0.0126245 -0.0254 0.0005
0.0132511 -0.0254 -0.0005
0.0132511 -0.0254 0.0005
0.0138825 -0.0254 -0.0005
0.0138825 -0.0254 0.0005
0.0145188 -0.0254 -0.0005
0.0145188 -0.0254 0.0005
0.0151601 -0.0254 -0.0005
0.0151601 -0.0254 0.0005
0.0158063 -0.0254 -0.0005
0.0158063 -0.0254 0.0005
0.0164576 -0.0254 -0.0005
0.0164576 -0.0254 0.0005
0.0171139 -0.0254 -0.0005
0.0171139 -0.0254 0.0005
0.0177754 -0.0254 -0.0005
0.0177754 -0.0254 0.0005
0.018442 -0.0254 -0.0005
0.018442 -0.0254 0.0005
0.0191137 -0.0254 -0.0005
0.0191137 -0.0254 0.0005
0.0197907 -0.0254 -0.0005
0.0197907 -0.0254 0.0005
0.020473 -0.0254 -0.0005
0.020473 -0.0254 0.0005
0.0211606 -0.0254 -0.0005
0.0211606 -0.0254 0.0005
0.0218535 -0.0254 -0.0005
0.0218535 -0.0254 0.0005
0.0225517 -0.0254 -0.0005
0.0225517 -0.0254 0.0005
0.0232555 -0.0254 -0.0005
0.0232555 -0.0254 0.0005
0.0239647 -0.0254 -0.0005
0.0239647 -0.0254 0.0005
0.0246794 -0.0254 -0.0005
0.0246794 -0.0254 0.0005
0.0253996 -0.0254 -0.0005
0.0253996 -0.0254 0.0005
0.0261255 -0.0254 -0.0005
0.0261255 -0.0254 0.0005
0.026857 -0.0254 -0.0005
0.026857 -0.0254 0.0005
0.0275942 -0.0254 -0.0005
0.0275942 -0.0254 0.0005
0.0283371 -0.0254 -0.0005
0.0283371 -0.0254 0.0005
0.0290858 -0.0254 -0.0005
0.0290858 -0.0254 0.0005
0.0298403 -0.0254 -0.0005
0.0298403 -0.0254 0.0005
0.0306007 -0.0254 -0.0005
0.0306007 -0.0254 0.0005
0.031367 -0.0254 -0.0005
0.031367 -0.0254 0.0005
0.0321393 -0.0254 -0.0005
0.0321393 -0.0254 0.0005
0.0329175 -0.0254 -0.0005
0.0329175 -0.0254 0.0005
0.0337019 -0.0254 -0.0005
0.0337019 -0.0254 0.0005
0.0344923 -0.0254 -0.0005
0.0344923 -0.0254 0.0005
0.0352888 -0.0254 -0.0005
0.0352888 -0.0254 0.0005
0.0360916 -0.0254 -0.0005
0.0360916 -0.0254 0.0005
0.0369006 -0.0254 -0.0005
0.0369006 -0.0254 0.0005
0.0377158 -0.0254 -0.0005
0.0377158 -0.0254 0.0005
0.0385375 -0.0254 -0.0005
0.0385375 -0.0254 0.0005
0.0393655 -0.0254 -0.0005
0.0393655 -0.0254 0.0005
0.0401999 -0.0254 -0.0005
0.0401999 -0.0254 0.0005
0.0410408 -0.0254 -0.0005
0.0410408 -0.0254 0.0005
0.0418883 -0.0254 -0.0005
0.0418883 -0.0254 0.0005
0.0427424 -0.0254 -0.0005
0.0427424 -0.0254 0.0005
0.0436031 -0.0254 -0.0005
0.0436031 -0.0254 0.0005
0.0444704 -0.0254 -0.0005
0.0444704 -0.0254 0.0005
0.0453446 -0.0254 -0.0005
0.0453446 -0.0254 0.0005
0.0462255 -0.0254 -0.0005
0.0462255 -0.0254 0.0005
0.0471133 -0.0254 -0.0005
0.0471133 -0.0254 0.0005
0.048008 -0.0254 -0.0005
0.048008 -0.0254 0.0005
0.0489096 -0.0254 -0.0005
0.0489096 -0.0254 0.0005
0.0498183 -0.0254 -0.0005
0.0498183 -0.0254 0.0005
0.050734 -0.0254 -0.0005
0.050734 -0.0254 0.0005
0.0516568 -0.0254 -0.0005
0.0516568 -0.0254 0.0005
0.0525868 -0.0254 -0.0005
0.0525868 -0.0254 0.0005
0.053524 -0.0254 -0.0005
0.053524 -0.0254 0.0005
0.0544686 -0.0254 -0.0005
0.0544686 -0.0254 0.0005
0.0554204 -0.0254 -0.0005
0.0554204 -0.0254 0.0005
0.0563797 -0.0254 -0.0005
0.0563797 -0.0254 0.0005
0.0573464 -0.0254 -0.0005
0.0573464 -0.0254 0.0005
0.0583206 -0.0254 -0.0005
0.0583206 -0.0254 0.0005
0.0593025 -0.0254 -0.0005
0.0593025 -0.0254 0.0005
0.0602919 -0.0254 -0.0005
0.0602919 -0.0254 0.0005
0.0612891 -0.0254 -0.0005
0.0612891 -0.0254 0.0005
0.0622939 -0.0254 -0.0005
0.0622939 -0.0254 0.0005
0.0633067 -0.0254 -0.0005
0.0633067 -0.0254 0.0005
0.0643272 -0.0254 -0.0005
0.0643272 -0.0254 0.0005
0.0653557 -0.0254 -0.0005
0.0653557 -0.0254 0.0005
0.0663923 -0.0254 -0.0005
0.0663923 -0.0254 0.0005
0.0674368 -0.0254 -0.0005
0.0674368 -0.0254 0.0005
0.0684895 -0.0254 -0.0005
0.0684895 -0.0254 0.0005
0.0695504 -0.0254 -0.0005
0.0695504 -0.0254 0.0005
0.0706195 -0.0254 -0.0005
0.0706195 -0.0254 0.0005
0.0716969 -0.0254 -0.0005
0.0716969 -0.0254 0.0005
0.0727828 -0.0254 -0.0005
0.0727828 -0.0254 0.0005
0.073877 -0.0254 -0.0005
0.073877 -0.0254 0.0005
0.0749798 -0.0254 -0.0005
0.0749798 -0.0254 0.0005
0.0760911 -0.0254 -0.0005
0.0760911 -0.0254 0.0005
0.0772111 -0.0254 -0.0005
0.0772111 -0.0254 0.0005
0.0783398 -0.0254 -0.0005
0.0783398 -0.0254 0.0005
0.0794772 -0.0254 -0.0005
0.0794772 -0.0254 0.0005
0.0806235 -0.0254 -0.0005
0.0806235 -0.0254 0.0005
0.0817787 -0.0254 -0.0005
0.0817787 -0.0254 0.0005
0.0829429 -0.0254 -0.0005
0.0829429 -0.0254 0.0005
0.0841162 -0.0254 -0.0005
0.0841162 -0.0254 0.0005
0.0852985 -0.0254 -0.0005
0.0852985 -0.0254 0.0005
0.0864901 -0.0254 -0.0005
0.0864901 -0.0254 0.0005
0.0876909 -0.0254 -0.0005
0.0876909 -0.0254 0.0005
0.0889011 -0.0254 -0.0005
0.0889011 -0.0254 0.0005
0.0901207 -0.0254 -0.0005
0.0901207 -0.0254 0.0005
0.0913497 -0.0254 -0.0005
0.0913497 -0.0254 0.0005
0.0925883 -0.0254 -0.0005
0.0925883 -0.0254 0.0005
0.0938366 -0.0254 -0.0005
0.0938366 -0.0254 0.0005
0.0950945 -0.0254 -0.0005
0.0950945 -0.0254 0.0005
0.0963622 -0.0254 -0.0005
0.0963622 -0.0254 0.0005
0.0976398 -0.0254 -0.0005
0.0976398 -0.0254 0.0005
0.0989273 -0.0254 -0.0005
0.0989273 -0.0254 0.0005
0.100225 -0.0254 -0.0005
0.100225 -0.0254 0.0005
0.101532 -0.0254 -0.0005
0.101532 -0.0254 0.0005
0.10285 -0.0254 -0.0005
0.10285 -0.0254 0.0005
0.104178 -0.0254 -0.0005
0.104178 -0.0254 0.0005
0.105517 -0.0254 -0.0005
0.105517 -0.0254 0.0005
0.106865 -0.0254 -0.0005
0.106865 -0.0254 0.0005
0.108225 -0.0254 -0.0005
0.108225 -0.0254 0.0005
0.109594 -0.0254 -0.0005
0.109594 -0.0254 0.0005
0.110975 -0.0254 -0.0005
0.110975 -0.0254 0.0005
0.112366 -0.0254 -0.0005
0.112366 -0.0254 0.0005
0.113768 -0.0254 -0.0005
0.113768 -0.0254 0.0005
0.115181 -0.0254 -0.0005
0.115181 -0.0254 0.0005
0.116605 -0.0254 -0.0005
0.116605 -0.0254 0.0005
0.11804 -0.0254 -0.0005
0.11804 -0.0254 0.0005
0.119486 -0.0254 -0.0005
0.119486 -0.0254 0.0005
0.120943 -0.0254 -0.0005
0.120943 -0.0254 0.0005
0.122412 -0.0254 -0.0005
0.122412 -0.0254 0.0005
0.123892 -0.0254 -0.0005
0.123892 -0.0254 0.0005
0.125384 -0.0254 -0.0005
0.125384 -0.0254 0.0005
0.126887 -0.0254 -0.0005
0.126887 -0.0254 0.0005
0.128402 -0.0254 -0.0005
0.128402 -0.0254 0.0005
0.129928 -0.0254 -0.0005
0.129928 -0.0254 0.0005
0.131467 -0.0254 -0.0005
0.131467 -0.0254 0.0005
0.133017 -0.0254 -0.0005
0.133017 -0.0254 0.0005
0.13458 -0.0254 -0.0005
0.13458 -0.0254 0.0005
0.136155 -0.0254 -0.0005
0.136155 -0.0254 0.0005
0.137742 -0.0254 -0.0005
0.137742 -0.0254 0.0005
0.139341 -0.0254 -0.0005
0.139341 -0.0254 0.0005
0.140953 -0.0254 -0.0005
0.140953 -0.0254 0.0005
0.142577 -0.0254 -0.0005
0.142577 -0.0254 0.0005
0.144214 -0.0254 -0.0005
0.144214 -0.0254 0.0005
0.145863 -0.0254 -0.0005
0.145863 -0.0254 0.0005
0.147526 -0.0254 -0.0005
0.147526 -0.0254 0.0005
0.149201 -0.0254 -0.0005
0.149201 -0.0254 0.0005
0.15089 -0.0254 -0.0005
0.15089 -0.0254 0.0005
0.152591 -0.0254 -0.0005
0.152591 -0.0254 0.0005
0.154306 -0.0254 -0.0005
0.154306 -0.0254 0.0005
0.156034 -0.0254 -0.0005
0.156034 -0.0254 0.0005
0.157775 -0.0254 -0.0005
0.157775 -0.0254 0.0005
0.159531 -0.0254 -0.0005
0.159531 -0.0254 0.0005
0.161299 -0.0254 -0.0005
0.161299 -0.0254 0.0005
0.163082 -0.0254 -0.0005
0.163082 -0.0254 0.0005
0.164878 -0.0254 -0.0005
0.164878 -0.0254 0.0005
0.166688 -0.0254 -0.0005
0.166688 -0.0254 0.0005
0.168513 -0.0254 -0.0005
0.168513 -0.0254 0.0005
0.170351 -0.0254 -0.0005
0.170351 -0.0254 0.0005
0.172204 -0.0254 -0.0005
0.172204 -0.0254 0.0005
0.174071 -0.0254 -0.0005
0.174071 -0.0254 0.0005
0.175953 -0.0254 -0.0005
0.175953 -0.0254 0.0005
0.177849 -0.0254 -0.0005
0.177849 -0.0254 0.0005
0.17976 -0.0254 -0.0005
0.17976 -0.0254 0.0005
0.181686 -0.0254 -0.0005
0.181686 -0.0254 0.0005
0.183627 -0.0254 -0.0005
0.183627 -0.0254 0.0005
0.185583 -0.0254 -0.0005
0.185583 -0.0254 0.0005
0.187555 -0.0254 -0.0005
0.187555 -0.0254 0.0005
0.189541 -0.0254 -0.0005
0.189541 -0.0254 0.0005
0.191543 -0.0254 -0.0005
0.191543 -0.0254 0.0005
0.193561 -0.0254 -0.0005
0.193561 -0.0254 0.0005
0.195594 -0.0254 -0.0005
0.195594 -0.0254 0.0005
0.197643 -0.0254 -0.0005
0.197643 -0.0254 0.0005
0.199708 -0.0254 -0.0005
0.199708 -0.0254 0.0005
0.201789 -0.0254 -0.0005
0.201789 -0.0254 0.0005
0.203886 -0.0254 -0.0005
0.203886 -0.0254 0.0005
0.206 -0.0254 -0.0005
0.206 -0.0254 0.0005
0.208047 -0.0251856 -0.0005
0.208047 -0.0251856 0.0005
0.210173 -0.0249628 -0.0005
0.210173 -0.0249628 0.0005
0.212382 -0.0247314 -0.0005
0.212382 -0.0247314 0.0005
0.214677 -0.024491 -0.0005
0.214677 -0.024491 0.0005
0.217061 -0.0242412 -0.0005
0.217061 -0.0242412 0.0005
0.219538 -0.0239817 -0.0005
0.219538 -0.0239817 0.0005
0.222112 -0.0237121 -0.0005
0.222112 -0.0237121 0.0005
0.224785 -0.023432 -0.0005
0.224785 -0.023432 0.0005
0.227563 -0.023141 -0.0005
0.227563 -0.023141 0.0005
0.230449 -0.0228387 -0.0005
0.230449 -0.0228387 0.0005
0.233447 -0.0225246 -0.0005
0.233447 -0.0225246 0.0005
0.236562 -0.0221983 -0.0005
0.236562 -0.0221983 0.0005
0.239797 -0.0218593 -0.0005
0.239797 -0.0218593 0.0005
0.243159 -0.0215071 -0.0005
0.243159 -0.0215071 0.0005
0.246652 -0.0211412 -0.0005
0.246652 -0.0211412 0.0005
0.250281 -0.0207611 -0.0005
0.250281 -0.0207611 0.0005
0.254051 -0.0203661 -0.0005
0.254051 -0.0203661 0.0005
0.257967 -0.0199558 -0.0005
0.257967 -0.0199558 0.0005
0.262036 -0.0195295 -0.0005
0.262036 -0.0195295 0.0005
0.266264 -0.0190867 -0.0005
0.266264 -0.0190867 0.0005
0.270655 -0.0186266 -0.0005
0.270655 -0.0186266 0.0005
0.275218 -0.0181486 -0.0005
0.275218 -0.0181486 0.0005
0.279959 -0.017652 -0.0005
0.279959 -0.017652 0.0005
0.284883 -0.017136 -0.0005
0.284883 -0.017136 0.0005
0.29 -0.0166 -0.0005
0.29 -0.0166 0.0005

POLYGONS 250 1250
4 0 1 2 3
4 1 4 5 2
4 4 6 7 5
4 6 8 9 7
4 8 10 11 9
4 10 12 13 11
4 12 14 15 13
4 14 16 17 15
4 16 18 19 17
4 18 20 21 19
4 20 22 23 21
4 22 24 25 23
4 24 26 27 25
4 26 28 29 27
4 28 30 31 29
4 30 32 33 31
4 32 34 35 33
4 34 36 37 35
4 38 39 40 41
4 41 40 42 43
4 43 42 44 45
4 45 44 46 47
4 47 46 48 49
4 49 48 50 51
4 51 50 52 53
4 53 52 54 55
4 55 54 37 36
4 56 57 58 59
4 59 58 60 61
4 61 60 62 63
4 63 62 64 65
4 65 64 66 67
4 67 66 68 69
4 69 68 70 71
4 71 70 72 73
4 73 72 74 75
4 75 74 76 77
4 77 76 78 79
4 79 78 80 81
4 81 80 82 83
4 83 82 84 85
4 85 84 86 87
4 87 86 88 89
4 89 88 90 91
4 91 90 39 38
4 56 92 93 57
4 92 94 95 93
4 94 96 97 95
4 96 98 99 97
4 98 100 101 99
4 100 102 103 101
4 102 104 105 103
4 104 106 107 105
4 106 108 109 107
4 108 110 111 109
4 110 112 113 111
4 112 114 115 113
4 114 116 117 115
4 116 118 119 117
4 118 120 121 119
4 120 122 123 121
4 122 124 125 123
4 124 126 127 125
4 126 128 129 127
4 128 130 131 129
4 130 132 133 131
4 132 134 135 133
4 134 136 137 135
4 136 138 139 137
4 138 140 141 139
4 140 142 143 141
4 142 144 145 143
4 144 146 147 145
4 146 148 149 147
4 148 150 151 149
4 150 152 153 151
4 152 154 155 153
4 154 156 157 155
4 156 158 159 157
4 158 160 161 159
4 160 162 163 161
4 162 164 165 163
4 164 166 167 165
4 166 168 169 167
4 168 170 171 169
4 170 172 173 171
4 172 174 175 173
4 174 176 177 175
4 176 178 179 177
4 178 180 181 179
4 180 182 183 181
4 182 184 185 183
4 184 186 187 185
4 186 188 189 187
4 188 190 191 189
4 190 192 193 191
4 192 194 195 193
4 194 196 197 195
4 196 198 199 197
4 198 200 201 199
4 200 202 203 201
4 202 204 205 203
4 204 206 207 205
4 206 208 209 207
4 208 210 211 209
4 210 212 213 211
4 212 214 215 213
4 214 216 217 215
4 216 218 219 217
4 218 220 221 219
4 220 222 223 221
4 222 224 225 223
4 224 226 227 225
4 226 228 229 227
4 228 230 231 229
4 230 232 233 231
4 232 234 235 233
4 234 236 237 235
4 236 238 239 237
4 238 240 241 239
4 240 242 243 241
4 242 244 245 243
4 244 246 247 245
4 246 248 249 247
4 248 250 251 249
4 250 252 253 251
4 252 254 255 253
4 254 256 257 255
4 256 258 259 257
4 258 260 261 259
4 260 262 263 261
4 262 264 265 263
4 264 266 267 265
4 266 268 269 267
4 268 270 271 269
4 270 272 273 271
4 272 274 275 273
4 274 276 277 275
4 276 278 279 277
4 278 280 281 279
4 280 282 283 281
4 282 284 285 283
4 284 286 287 285
4 286 288 289 287
4 288 290 291 289
4 290 292 293 291
4 292 294 295 293
4 294 296 297 295
4 296 298 299 297
4 298 300 301 299
4 300 302 303 301
4 302 304 305 303
4 304 306 307 305
4 306 308 309 307
4 308 310 311 309
4 310 312 313 311
4 312 314 315 313
4 314 316 317 315
4 316 318 319 317
4 318 320 321 319
4 320 322 323 321
4 322 324 325 323
4 324 326 327 325
4 326 328 329 327
4 328 330 331 329
4 330 332 333 331
4 332 334 335 333
4 334 336 337 335
4 336 338 339 337
4 338 340 341 339
4 340 342 343 341
4 342 344 345 343
4 344 346 347 345
4 346 348 349 347
4 348 350 351 349
4 350 352 353 351
4 352 354 355 353
4 354 356 357 355
4 356 358 359 357
4 358 360 361 359
4 360 362 363 361
4 362 364 365 363
4 364 366 367 365
4 366 368 369 367
4 368 370 371 369
4 370 372 373 371
4 372 374 375 373
4 374 376 377 375
4 376 378 379 377
4 378 380 381 379
4 380 382 383 381
4 382 384 385 383
4 384 386 387 385
4 386 388 389 387
4 388 390 391 389
4 390 392 393 391
4 392 394 395 393
4 394 396 397 395
4 396 398 399 397
4 398 400 401 399
4 400 402 403 401
4 402 404 405 403
4 404 406 407 405
4 406 408 409 407
4 408 410 411 409
4 410 412 413 411
4 412 414 415 413
4 414 416 417 415
4 416 418 419 417
4 418 420 421 419
4 420 422 423 421
4 422 424 425 423
4 424 426 427 425
4 426 428 429 427
4 428 430 431 429
4 430 432 433 431
4 432 434 435 433
4 434 436 437 435
4 436 438 439 437
4 438 440 441 439
4 440 442 443 441
4 442 444 445 443
4 444 446 447 445
4 446 448 449 447
4 448 450 451 449
4 450 452 453 451
4 452 454 455 453
4 454 456 457 455
4 456 458 459 457
4 458 460 461 459
4 460 462 463 461
4 462 464 465 463
4 464 466 467 465
4 466 468 469 467
4 468 470 471 469
4 470 472 473 471
4 472 474 475 473
4 474 476 477 475
4 476 478 479 477
4 478 480 481 479
4 480 482 483 481
4 482 484 485 483
4 484 486 487 485
4 486 488 489 487
4 488 490 491 489
4 490 492 493 491
4 492 494 495 493
4 494 496 497 495
4 496 498 499 497
4 498 500 501 499
POINT_DATA 502
FIELD attributes 1
U 3 502 float
3.24044 0.0176163 -0.00554137
1.61111 0.0092736 -0.00273079
1.61111 0.0092736 -0.00273079
3.24044 0.0176163 -0.00554137
0.0235635 0.000655279 0
0.0235635 0.000655279 0
0.0173083 2.79992e-05 0
0.0173083 2.79992e-05 0
0.0143264 -7.43034e-05 0
0.0143264 -7.43034e-05 0
0.0130019 -5.72342e-05 0
0.0130019 -5.72342e-05 0
0.0127803 -0.000103487 0
0.0127803 -0.000103487 0
0.0128326 -6.88327e-05 0
0.0128326 -6.88327e-05 0
0.0123947 4.99501e-05 0
0.0123947 4.99501e-05 0
0.0120243 1.05526e-06 0
0.0120243 1.05526e-06 0
0.0128557 -0.000156631 0
0.0128557 -0.000156631 0
0.0138757 -0.000116876 0
0.0138757 -0.000116876 0
0.0141183 4.51705e-05 0
0.0141183 4.51705e-05 0
0.0135839 9.07747e-05 0
0.0135839 9.07747e-05 0
0.0142575 -3.30247e-05 0
0.0142575 -3.30247e-05 0
0.0157377 -0.000266858 0
0.0157377 -0.000266858 0
0.0183605 -0.00029561 0
0.0183605 -0.00029561 0
0.0199687 -0.000326455 0
0.0199687 -0.000326455 0
0.00917766 0.00114196 0
0.00917766 0.00114196 0
0.00126497 0.0130979 0
0.00126497 0.0130979 0
0.00156658 0.0100682 0
0.00156658 0.0100682 0
0.00184643 0.00607637 0
0.00184643 0.00607637 0
0.00163403 0.00150488 -6.83607e-22
0.00163403 0.00150488 -6.83607e-22
0.000239411 -0.00253364 7.66732e-23
0.000239411 -0.00253364 7.66732e-23
-0.00186803 -0.00418724 -7.66538e-23
-0.00186803 -0.00418724 -7.66538e-23
-0.00350221 -0.00349233 8.5318e-23
-0.00350221 -0.00349233 8.5318e-23
-0.00432081 -0.000769178 8.65765e-22
-0.00432081 -0.000769178 8.65765e-22
-0.001959 0.00188476 0
-0.001959 0.00188476 0
-3.64847e-05 6.21716e-05 0
-3.64847e-05 6.21716e-05 0
-6.25381e-05 0.00023111 0
-6.25381e-05 0.00023111 0
-9.53371e-05 0.000554023 0
-9.53371e-05 0.000554023 0
-0.000110672 0.000892519 0
-0.000110672 0.000892519 0
-0.000128277 0.00130208 -1.45883e-22
-0.000128277 0.00130208 -1.45883e-22
-0.000146785 0.00179951 -2.90592e-26
-0.000146785 0.00179951 -2.90592e-26
-0.000166131 0.00240039 1.45854e-22
-0.000166131 0.00240039 1.45854e-22
-0.000186834 0.00312663 2.99939e-22
-0.000186834 0.00312663 2.99939e-22
-0.000209834 0.00399466 5.73783e-26
-0.000209834 0.00399466 5.73783e-26
-0.000236437 0.00505691 -2.99881e-22
-0.000236437 0.00505691 -2.99881e-22
-0.000264491 0.0062852 0
-0.000264491 0.0062852 0
-0.000280522 0.00783793 0
-0.000280522 0.00783793 0
-0.000316632 0.0094258 0
-0.000316632 0.0094258 0
-0.000270414 0.0115511 0
-0.000270414 0.0115511 0
-0.000130047 0.0133114 0
-0.000130047 0.0133114 0
-1.07309e-05 0.014452 0
-1.07309e-05 0.014452 0
0.000308021 0.0159634 0
0.000308021 0.0159634 0
0.000815123 0.0156239 0
0.000815123 0.0156239 0
-5.78782e-05 5.1367e-05 0
-5.78782e-05 5.1367e-05 0
-9.37674e-05 3.75556e-05 0
-9.37674e-05 3.75556e-05 0
-0.000122729 3.27268e-05 0
-0.000122729 3.27268e-05 0
-0.000149264 2.87546e-05 0
-0.000149264 2.87546e-05 0
-0.000171567 2.40714e-05 0
-0.000171567 2.40714e-05 0
-0.000189191 1.86036e-05 -1.59772e-23
-0.000189191 1.86036e-05 -1.59772e-23
-0.000200759 1.22843e-05 -1.69621e-25
-0.000200759 1.22843e-05 -1.69621e-25
-0.00020551 5.05166e-06 1.58658e-23
-0.00020551 5.05166e-06 1.58658e-23
-0.000202581 -2.92058e-06 1.55449e-23
-0.000202581 -2.92058e-06 1.55449e-23
-0.000191233 -1.13939e-05 1.55742e-23
-0.000191233 -1.13939e-05 1.55742e-23
-0.000170109 -2.0309e-05 0
-0.000170109 -2.0309e-05 0
-0.000138555 -2.97216e-05 0
-0.000138555 -2.97216e-05 0
-9.66096e-05 -3.94285e-05 -1.49228e-23
-9.66096e-05 -3.94285e-05 -1.49228e-23
-4.33398e-05 -4.92317e-05 -1.49523e-23
-4.33398e-05 -4.92317e-05 -1.49523e-23
2.15965e-05 -5.90539e-05 0
2.15965e-05 -5.90539e-05 0
9.7886e-05 -6.87145e-05 1.44288e-23
9.7886e-05 -6.87145e-05 1.44288e-23
0.000185547 -7.80546e-05 1.44582e-23
0.000185547 -7.80546e-05 1.44582e-23
0.000284513 -8.6947e-05 0
0.000284513 -8.6947e-05 0
0.000394504 -9.52734e-05 0
0.000394504 -9.52734e-05 0
0.000515091 -0.000102929 -1.37539e-23
0.000515091 -0.000102929 -1.37539e-23
0.000645694 -0.000109819 -1.37833e-23
0.000645694 -0.000109819 -1.37833e-23
0.000785628 -0.000115862 -1.34165e-23
0.000785628 -0.000115862 -1.34165e-23
0.000934135 -0.000120993 -1.34458e-23
0.000934135 -0.000120993 -1.34458e-23
0.00109038 -0.000125173 0
0.00109038 -0.000125173 0
0.00125341 -0.000128381 -1.29196e-23
0.00125341 -0.000128381 -1.29196e-23
0.00142222 -0.000130609 -1.29487e-23
0.00142222 -0.000130609 -1.29487e-23
0.00159582 -0.000131866 1.25984e-23
0.00159582 -0.000131866 1.25984e-23
0.00177323 -0.000132172 1.26275e-23
0.00177323 -0.000132172 1.26275e-23
0.00195344 -0.000131565 -1.22879e-23
0.00195344 -0.000131565 -1.22879e-23
0.00213539 -0.000130107 -1.23169e-23
0.00213539 -0.000130107 -1.23169e-23
0.0023181 -0.000127865 0
0.0023181 -0.000127865 0
0.00250072 -0.00012489 0
0.00250072 -0.00012489 0
0.00268237 -0.000121245 0
0.00268237 -0.000121245 0
0.00286218 -0.000117027 0
0.00286218 -0.000117027 0
0.0030394 -0.000112334 1.14319e-23
0.0030394 -0.000112334 1.14319e-23
0.00321343 -0.000107229 1.14606e-23
0.00321343 -0.000107229 1.14606e-23
0.00338368 -0.000101767 -2.23449e-23
0.00338368 -0.000101767 -2.23449e-23
0.00354953 -9.60379e-05 -2.24022e-23
0.00354953 -9.60379e-05 -2.24022e-23
0.00371051 -9.01373e-05 2.18504e-23
0.00371051 -9.01373e-05 2.18504e-23
0.00386631 -8.41289e-05 2.19077e-23
0.00386631 -8.41289e-05 2.19077e-23
0.00401666 -7.80515e-05 0
0.00401666 -7.80515e-05 0
0.00416121 -7.19608e-05 -2.11508e-23
0.00416121 -7.19608e-05 -2.11508e-23
0.00429974 -6.59279e-05 -2.1208e-23
0.00429974 -6.59279e-05 -2.1208e-23
0.00443218 -6.00052e-05 -2.07094e-23
0.00443218 -6.00052e-05 -2.07094e-23
0.00455851 -5.42174e-05 -2.71097e-25
0.00455851 -5.42174e-05 -2.71097e-25
0.00467861 -4.85882e-05 2.05525e-23
0.00467861 -4.85882e-05 2.05525e-23
0.00479246 -4.31541e-05 2.00796e-23
0.00479246 -4.31541e-05 2.00796e-23
0.00490014 -3.79472e-05 4.00139e-23
0.00490014 -3.79472e-05 4.00139e-23
0.0050018 -3.29812e-05 1.99343e-23
0.0050018 -3.29812e-05 1.99343e-23
0.0050975 -2.82615e-05 0
0.0050975 -2.82615e-05 0
0.0051873 -2.37978e-05 0
0.0051873 -2.37978e-05 0
0.00527141 -1.95999e-05 0
0.00527141 -1.95999e-05 0
0.00535005 -1.56697e-05 0
0.00535005 -1.56697e-05 0
0.00542338 -1.20036e-05 -1.87277e-23
0.00542338 -1.20036e-05 -1.87277e-23
0.00549155 -8.59755e-06 -1.87846e-23
0.00549155 -8.59755e-06 -1.87846e-23
0.00555475 -5.44638e-06 1.83645e-23
0.00555475 -5.44638e-06 1.83645e-23
0.00561326 -2.54137e-06 1.84214e-23
0.00561326 -2.54137e-06 1.84214e-23
0.00566729 1.26556e-07 0
0.00566729 1.26556e-07 0
0.00571699 2.56527e-06 -1.78346e-23
0.00571699 2.56527e-06 -1.78346e-23
0.00576258 4.78553e-06 -1.78914e-23
0.00576258 4.78553e-06 -1.78914e-23
0.00580428 6.80206e-06 1.74899e-23
0.00580428 6.80206e-06 1.74899e-23
0.00584233 8.62792e-06 1.75466e-23
0.00584233 8.62792e-06 1.75466e-23
0.0058769 1.02716e-05 0
0.0058769 1.02716e-05 0
0.00590816 1.17432e-05 0
0.00590816 1.17432e-05 0
0.00593632 1.30592e-05 -1.68176e-23
0.00593632 1.30592e-05 -1.68176e-23
0.00596157 1.42354e-05 -1.68741e-23
0.00596157 1.42354e-05 -1.68741e-23
0.00598409 1.52805e-05 0
0.00598409 1.52805e-05 0
0.006004 1.62004e-05 -1.63265e-23
0.006004 1.62004e-05 -1.63265e-23
0.00602149 1.70083e-05 -1.63828e-23
0.00602149 1.70083e-05 -1.63828e-23
0.00603672 1.77212e-05 -1.60046e-23
0.00603672 1.77212e-05 -1.60046e-23
0.00604987 1.83428e-05 -1.60607e-23
0.00604987 1.83428e-05 -1.60607e-23
0.00606106 1.88574e-05 0
0.00606106 1.88574e-05 0
0.0060704 1.92161e-05 0
0.0060704 1.92161e-05 0
0.00607795 1.9427e-05 1.53727e-23
0.00607795 1.9427e-05 1.53727e-23
0.00608387 1.95551e-05 1.54284e-23
0.00608387 1.95551e-05 1.54284e-23
0.00608827 1.96284e-05 0
0.00608827 1.96284e-05 0
0.00609126 1.96589e-05 1.49084e-23
0.00609126 1.96589e-05 1.49084e-23
0.00609293 1.96526e-05 2.97192e-23
0.00609293 1.96526e-05 2.97192e-23
0.00609339 1.96157e-05 1.48107e-23
0.00609339 1.96157e-05 1.48107e-23
0.00609273 1.95549e-05 1.44519e-23
0.00609273 1.95549e-05 1.44519e-23
0.00609102 1.94699e-05 1.45069e-23
0.00609102 1.94699e-05 1.45069e-23
0.00608831 1.93596e-05 2.83035e-23
0.00608831 1.93596e-05 2.83035e-23
0.00608469 1.92288e-05 2.8413e-23
0.00608469 1.92288e-05 2.8413e-23
0.00608022 1.9109e-05 2.77098e-23
0.00608022 1.9109e-05 2.77098e-23
0.00607494 1.90099e-05 2.78186e-23
0.00607494 1.90099e-05 2.78186e-23
0.00606889 1.89063e-05 -2.71225e-23
0.00606889 1.89063e-05 -2.71225e-23
0.00606211 1.87891e-05 -2.72307e-23
0.00606211 1.87891e-05 -2.72307e-23
0.00605467 1.86588e-05 0
0.00605467 1.86588e-05 0
0.00604664 1.85228e-05 0
0.00604664 1.85228e-05 0
0.00603805 1.8386e-05 2.59668e-23
0.00603805 1.8386e-05 2.59668e-23
0.00602891 1.8245e-05 2.60735e-23
0.00602891 1.8245e-05 2.60735e-23
0.00601926 1.80952e-05 -2.53983e-23
0.00601926 1.80952e-05 -2.53983e-23
0.00600914 1.79366e-05 -2.55041e-23
0.00600914 1.79366e-05 -2.55041e-23
0.00599858 1.77761e-05 2.48359e-23
0.00599858 1.77761e-05 2.48359e-23
0.00598763 1.76187e-05 4.9498e-23
0.00598763 1.76187e-05 4.9498e-23
0.00597628 1.74618e-05 4.89413e-23
0.00597628 1.74618e-05 4.89413e-23
0.00596457 1.73006e-05 2.43838e-23
0.00596457 1.73006e-05 2.43838e-23
0.0059525 1.71353e-05 0
0.0059525 1.71353e-05 0
0.00594013 1.69704e-05 0
0.00594013 1.69704e-05 0
0.00592746 1.68102e-05 0
0.00592746 1.68102e-05 0
0.00591452 1.6655e-05 0
0.00591452 1.6655e-05 0
0.0059013 1.6501e-05 0
0.0059013 1.6501e-05 0
0.00588782 1.63448e-05 0
0.00588782 1.63448e-05 0
0.00587409 1.61869e-05 0
0.00587409 1.61869e-05 0
0.00586016 1.60316e-05 -2.1851e-23
0.00586016 1.60316e-05 -2.1851e-23
0.00584602 1.58816e-05 -4.3539e-23
0.00584602 1.58816e-05 -4.3539e-23
0.00583167 1.57355e-05 -2.16874e-23
0.00583167 1.57355e-05 -2.16874e-23
0.00581713 1.55895e-05 0
0.00581713 1.55895e-05 0
0.0058024 1.54412e-05 0
0.0058024 1.54412e-05 0
0.0057875 1.52922e-05 -2.05527e-23
0.0057875 1.52922e-05 -2.05527e-23
0.00577244 1.51457e-05 -2.06493e-23
0.00577244 1.51457e-05 -2.06493e-23
0.00575724 1.50039e-05 0
0.00575724 1.50039e-05 0
0.0057419 1.48656e-05 0
0.0057419 1.48656e-05 0
0.00572641 1.47281e-05 0
0.00572641 1.47281e-05 0
0.00571079 1.45899e-05 1.92894e-23
0.00571079 1.45899e-05 1.92894e-23
0.00569504 1.44517e-05 1.93828e-23
0.00569504 1.44517e-05 1.93828e-23
0.00567917 1.43151e-05 0
0.00567917 1.43151e-05 0
0.0056632 1.41815e-05 -1.85476e-23
0.0056632 1.41815e-05 -1.85476e-23
0.00564712 1.40508e-05 -3.36024e-25
0.00564712 1.40508e-05 -3.36024e-25
0.00563094 1.39219e-05 1.83936e-23
0.00563094 1.39219e-05 1.83936e-23
0.00561466 1.37937e-05 1.78175e-23
0.00561466 1.37937e-05 1.78175e-23
0.00559827 1.36656e-05 1.79067e-23
0.00559827 1.36656e-05 1.79067e-23
0.0055818 1.35373e-05 -1.73371e-23
0.0055818 1.35373e-05 -1.73371e-23
0.00556524 1.34094e-05 -1.74249e-23
0.00556524 1.34094e-05 -1.74249e-23
0.0055486 1.32825e-05 0
0.0055486 1.32825e-05 0
0.00553189 1.31577e-05 0
0.00553189 1.31577e-05 0
0.00551511 1.30358e-05 0
0.00551511 1.30358e-05 0
0.00549826 1.29162e-05 0
0.00549826 1.29162e-05 0
0.00548132 1.27974e-05 3.18498e-23
0.00548132 1.27974e-05 3.18498e-23
0.00546432 1.26777e-05 6.34036e-23
0.00546432 1.26777e-05 6.34036e-23
0.00544724 1.25568e-05 3.15522e-23
0.00544724 1.25568e-05 3.15522e-23
0.00543011 1.24356e-05 0
0.00543011 1.24356e-05 0
0.00541292 1.2316e-05 0
0.00541292 1.2316e-05 0
0.00539568 1.21993e-05 -2.95595e-23
0.00539568 1.21993e-05 -2.95595e-23
0.00537838 1.2085e-05 -2.97179e-23
0.00537838 1.2085e-05 -2.97179e-23
0.00536103 1.19712e-05 0
0.00536103 1.19712e-05 0
0.00534361 1.18561e-05 0
0.00534361 1.18561e-05 0
0.00532614 1.17392e-05 -2.77659e-23
0.00532614 1.17392e-05 -2.77659e-23
0.00530862 1.16219e-05 -5.94919e-25
0.00530862 1.16219e-05 -5.94919e-25
0.00529106 1.1506e-05 2.74724e-23
0.00529106 1.1506e-05 2.74724e-23
0.00527346 1.13921e-05 0
0.00527346 1.13921e-05 0
0.00525581 1.12795e-05 2.60042e-23
0.00525581 1.12795e-05 2.60042e-23
0.00523812 1.11668e-05 5.17173e-23
0.00523812 1.11668e-05 5.17173e-23
0.00522039 1.10533e-05 2.57113e-23
0.00522039 1.10533e-05 2.57113e-23
0.00520261 1.09387e-05 0
0.00520261 1.09387e-05 0
0.0051848 1.08238e-05 -2.42723e-23
0.0051848 1.08238e-05 -2.42723e-23
0.00516695 1.07096e-05 -5.65843e-25
0.00516695 1.07096e-05 -5.65843e-25
0.00514907 1.05969e-05 2.39792e-23
0.00514907 1.05969e-05 2.39792e-23
0.00513115 1.04854e-05 0
0.00513115 1.04854e-05 0
0.0051132 1.03741e-05 2.2568e-23
0.0051132 1.03741e-05 2.2568e-23
0.0050952 1.02625e-05 2.26977e-23
0.0050952 1.02625e-05 2.26977e-23
0.00507717 1.01508e-05 0
0.00507717 1.01508e-05 0
0.00505909 1.00391e-05 2.13062e-23
0.00505909 1.00391e-05 2.13062e-23
0.00504097 9.92752e-06 2.14302e-23
0.00504097 9.92752e-06 2.14302e-23
0.00502281 9.81682e-06 2.04724e-23
0.00502281 9.81682e-06 2.04724e-23
0.0050046 9.70796e-06 2.05924e-23
0.0050046 9.70796e-06 2.05924e-23
0.00498633 9.60144e-06 0
0.00498633 9.60144e-06 0
0.00496799 9.49791e-06 0
0.00496799 9.49791e-06 0
0.00494956 9.39738e-06 -1.88204e-23
0.00494956 9.39738e-06 -1.88204e-23
0.00493102 9.29985e-06 -1.89324e-23
0.00493102 9.29985e-06 -1.89324e-23
0.00491235 9.20649e-06 0
0.00491235 9.20649e-06 0
0.00489351 9.1183e-06 0
0.00489351 9.1183e-06 0
0.00487446 9.0377e-06 0
0.00487446 9.0377e-06 0
0.00485515 8.96787e-06 0
0.00485515 8.96787e-06 0
0.0048355 8.91176e-06 0
0.0048355 8.91176e-06 0
0.00481541 8.87532e-06 -1.59692e-23
0.00481541 8.87532e-06 -1.59692e-23
0.00479475 8.85891e-06 -3.16308e-23
0.00479475 8.85891e-06 -3.16308e-23
0.00477329 8.88797e-06 -1.56595e-23
0.00477329 8.88797e-06 -1.56595e-23
0.00475095 8.93091e-06 0