/*--------------------------------*- C++ -*----------------------------------*\
| =========                 |                                                 |
| \\      /  F ield         | OpenFOAM: The Open Source CFD Toolbox           |
|  \\    /   O peration     | Version:  2.1.x                                 |
|   \\  /    A nd           | Web:      www.OpenFOAM.org                      |
|    \\/     M anipulation  |                                                 |
\*---------------------------------------------------------------------------*/
FoamFile
{
    version     2.0;
    format      ascii;
    class       volScalarField;
    location    "0.4";
    object      p;
}
// * * * * * * * * * * * * * * * * * * * * * * * * * * * * * * * * * * * * * //

dimensions      [0 2 -2 0 0 0 0];

internalField   nonuniform List<scalar> 
3875
(
19.977
19.9363
19.9003
19.8656
19.8307
19.7961
19.7617
19.7273
19.6929
19.6583
19.6234
19.5887
19.5537
19.5188
19.4845
19.4494
19.4135
19.3786
19.3431
19.3075
19.272
19.2359
19.1998
19.1641
19.128
19.0924
19.0565
19.0207
18.9848
18.9489
18.9135
18.8783
18.8425
18.8073
18.7718
18.7376
18.705
18.6741
18.6454
18.6223
18.6079
18.6065
18.6296
18.7
18.8378
19.1248
19.58
20.3691
21.4734
22.9334
19.9733
19.9312
19.8975
19.8654
19.8303
19.7951
19.7611
19.7266
19.693
19.6581
19.6233
19.5884
19.5534
19.518
19.4844
19.4498
19.4124
19.3776
19.3434
19.3075
19.2727
19.2349
19.1994
19.1642
19.1273
19.0918
19.0569
19.0205
18.9857
18.9488
18.913
18.8777
18.8427
18.8073
18.7717
18.7364
18.704
18.6702
18.6401
18.6148
18.5918
18.582
18.5826
18.6173
18.6879
18.8667
19.1664
19.6994
20.472
21.4466
19.9718
19.9301
19.8974
19.8657
19.8319
19.7955
19.7612
19.7283
19.6924
19.6566
19.6233
19.5897
19.5536
19.5187
19.4847
19.4486
19.4132
19.3796
19.3441
19.3081
19.2727
19.2354
19.1993
19.1636
19.1285
19.0936
19.0573
19.0208
18.9841
18.9486
18.9142
18.8781
18.8409
18.8053
18.7707
18.7345
18.7011
18.6661
18.6326
18.5988
18.5667
18.5326
18.5061
18.4692
18.4498
18.4166
18.448
18.4509
18.691
18.7787
19.9733
19.9314
19.8974
19.8655
19.8312
19.795
19.7599
19.7262
19.6929
19.657
19.6219
19.5884
19.5545
19.5202
19.4853
19.4494
19.4135
19.3781
19.3418
19.3063
19.2722
19.2353
19.198
19.1636
19.1294
19.0924
19.0555
19.0203
18.9854
18.9493
18.9134
18.8774
18.8411
18.8044
18.768
18.7331
18.6993
18.6618
18.624
18.5835
18.5398
18.487
18.4222
18.3299
18.1944
17.9861
17.6329
17.1049
16.2636
15.5069
19.9771
19.9366
19.9002
19.8654
19.8308
19.7959
19.7611
19.7266
19.692
19.6574
19.6231
19.5888
19.5541
19.5197
19.485
19.4496
19.4139
19.3783
19.3427
19.3071
19.2716
19.2358
19.1999
19.1646
19.1287
19.0921
19.0559
19.0202
18.9846
18.949
18.9131
18.877
18.8405
18.8047
18.7687
18.7331
18.6974
18.6593
18.6182
18.573
18.524
18.4558
18.3694
18.2337
18.0379
17.6982
17.1369
16.1105
13.9899
10.1962
19.9731
19.9321
19.898
19.8646
19.8299
19.7952
19.7603
19.7266
19.6931
19.6584
19.6228
19.5883
19.5533
19.5185
19.4847
19.4497
19.4133
19.3782
19.342
19.3069
19.2723
19.2366
19.1998
19.1639
19.1276
19.0921
19.0562
19.0207
18.9838
18.9483
18.9143
18.8789
18.8428
18.808
18.771
18.7376
18.7057
18.6735
18.6451
18.6228
18.6088
18.6051
18.6295
18.6955
18.8341
19.1147
19.5674
20.3247
21.3986
22.8773
19.9707
19.9281
19.895
19.8626
19.8288
19.7945
19.7603
19.7262
19.6919
19.6573
19.6227
19.5882
19.5534
19.5185
19.484
19.4489
19.4131
19.3778
19.3423
19.3068
19.2713
19.2352
19.1992
19.1636
19.1277
19.092
19.0563
19.0206
18.9848
18.9489
18.9136
18.8781
18.8425
18.8071
18.7716
18.7371
18.7037
18.6701
18.6402
18.614
18.5904
18.5793
18.5824
18.6161
18.6921
18.8647
19.1607
19.6672
20.4043
21.3341
19.9704
19.9272
19.8947
19.8631
19.8296
19.7952
19.7611
19.727
19.6922
19.6575
19.6229
19.5885
19.5536
19.5188
19.4841
19.4489
19.4134
19.3782
19.343
19.3074
19.2717
19.2355
19.1994
19.1639
19.1282
19.0924
19.0564
19.0207
18.9847
18.949
18.9134
18.8776
18.8417
18.8061
18.7701
18.735
18.7009
18.6659
18.6316
18.597
18.5651
18.5332
18.5024
18.4705
18.445
18.4114
18.4312
18.417
18.6325
18.7123
19.9708
19.9282
19.895
19.8628
19.8292
19.7946
19.76
19.7258
19.6914
19.6569
19.6225
19.5879
19.5535
19.5192
19.4845
19.449
19.4132
19.3776
19.3421
19.3065
19.2709
19.235
19.1992
19.1639
19.1282
19.0919
19.0557
19.0201
18.9846
18.949
18.9132
18.8771
18.8411
18.8053
18.7675
18.7329
18.6993
18.6616
18.6215
18.5829
18.5387
18.4868
18.4186
18.3284
18.1846
17.9795
17.6049
17.0862
16.1985
15.4704
19.9742
19.9327
19.8977
19.864
19.8302
19.7956
19.7608
19.7261
19.6911
19.6572
19.6239
19.5884
19.5526
19.519
19.4854
19.4501
19.4136
19.3769
19.3423
19.3078
19.2719
19.2355
19.1996
19.165
19.129
19.0916
19.0553
19.0192
18.9837
18.9493
18.9135
18.8767
18.84
18.8049
18.7688
18.7325
18.6979
18.6594
18.6176
18.5731
18.5235
18.4569
18.3696
18.2361
18.0372
17.7016
17.1321
16.1079
13.9786
10.1308
19.973
19.9317
19.8974
19.8634
19.83
19.7961
19.7613
19.7277
19.6933
19.6589
19.6221
19.5871
19.5545
19.52
19.4847
19.4496
19.4141
19.3798
19.3429
19.306
19.2713
19.2367
19.2006
19.1639
19.128
19.0917
19.0559
19.0219
18.9864
18.9496
18.9131
18.8779
18.8433
18.8081
18.7725
18.7383
18.7049
18.6736
18.645
18.6214
18.6076
18.6057
18.6313
18.6966
18.8366
19.1095
19.5584
20.3057
21.3769
22.8683
19.9705
19.9274
19.8947
19.8627
19.8293
19.7952
19.7611
19.7268
19.6924
19.6577
19.6228
19.588
19.5538
19.519
19.4842
19.4489
19.4137
19.3783
19.3426
19.3068
19.2716
19.236
19.1999
19.1637
19.128
19.0921
19.0565
19.021
18.9852
18.9491
18.9135
18.878
18.8426
18.807
18.7716
18.7367
18.7029
18.6698
18.6395
18.6126
18.5903
18.5794
18.5841
18.6176
18.6948
18.8645
19.1519
19.6588
20.3805
21.3105
19.9703
19.9265
19.8946
19.8633
19.83
19.7958
19.7617
19.7274
19.6928
19.6582
19.6233
19.5885
19.5541
19.5195
19.4847
19.4496
19.4142
19.3789
19.3433
19.3075
19.2719
19.236
19.2001
19.1642
19.1284
19.0923
19.0566
19.0208
18.9848
18.949
18.9136
18.8778
18.8419
18.8061
18.7706
18.7351
18.7
18.6655
18.6314
18.5978
18.5647
18.5332
18.5015
18.4704
18.4419
18.4102
18.423
18.4122
18.615
18.6974
19.9701
19.9276
19.8948
19.863
19.8297
19.7954
19.7609
19.7265
19.6921
19.6576
19.6228
19.5879
19.5536
19.5193
19.4846
19.4494
19.414
19.3784
19.3425
19.3068
19.2714
19.2356
19.1996
19.1641
19.1284
19.0924
19.056
19.0199
18.9843
18.9487
18.9131
18.8773
18.8416
18.8055
18.7692
18.7334
18.6959
18.6603
18.6234
18.5837
18.5375
18.4866
18.4153
18.3273
18.1799
17.9786
17.6011
17.0833
16.1853
15.4644
19.9717
19.9314
19.8974
19.8641
19.8318
19.7972
19.7613
19.7261
19.6919
19.6589
19.6241
19.5874
19.5532
19.5195
19.4845
19.4502
19.4149
19.3793
19.3437
19.3077
19.2718
19.2359
19.2002
19.1637
19.1277
19.0929
19.0566
19.0197
18.9828
18.948
18.9133
18.8775
18.8409
18.8049
18.7691
18.733
18.6961
18.6576
18.6187
18.5749
18.5237
18.457
18.3693
18.2363
18.0361
17.702
17.1311
16.1152
13.9856
10.1478
19.9732
19.932
19.8979
19.8646
19.8294
19.7944
19.7609
19.7273
19.6926
19.6589
19.622
19.5868
19.5542
19.5194
19.4836
19.4496
19.4146
19.3784
19.3423
19.3065
19.2709
19.2368
19.2004
19.1635
19.1276
19.0918
19.0556
19.0213
18.9862
18.9491
18.9129
18.8785
18.8425
18.8078
18.7726
18.7384
18.7041
18.6725
18.6446
18.6217
18.607
18.607
18.6311
18.7008
18.8385
19.1166
19.566
20.3251
21.3984
22.8777
19.971
19.9281
19.8948
19.8624
19.8285
19.7942
19.7604
19.7265
19.6921
19.6573
19.6221
19.5875
19.5535
19.5188
19.4838
19.4489
19.4137
19.3782
19.3423
19.3063
19.2709
19.2354
19.1993
19.1633
19.1279
19.0922
19.0561
19.0206
18.9852
18.9491
18.9133
18.8776
18.8423
18.8071
18.772
18.7369
18.7012
18.6689
18.6407
18.6115
18.591
18.5793
18.5835
18.6174
18.6938
18.8662
19.1641
19.6688
20.413
21.3405
19.9705
19.9274
19.8947
19.8629
19.8293
19.795
19.7611
19.7271
19.6924
19.6577
19.6227
19.5881
19.5538
19.5189
19.4841
19.4494
19.4139
19.3785
19.3429
19.307
19.2712
19.2355
19.1994
19.1637
19.1278
19.0921
19.0562
19.0203
18.9847
18.9488
18.9133
18.8778
18.8421
18.8064
18.7709
18.7351
18.6989
18.6644
18.6296
18.5969
18.5677
18.5312
18.5054
18.4656
18.4477
18.4085
18.4374
18.42
18.6443
18.7281
19.971
19.9285
19.8949
19.8624
19.8289
19.7947
19.7605
19.7262
19.6916
19.6571
19.6224
19.5876
19.5531
19.5186
19.4841
19.4493
19.4136
19.3779
19.3422
19.3065
19.2708
19.235
19.1992
19.1637
19.128
19.0918
19.0555
19.0199
18.9843
18.9486
18.913
18.8775
18.8419
18.8059
18.7697
18.7333
18.6947
18.6602
18.6228
18.5835
18.5385
18.4881
18.4188
18.3281
18.1872
17.9814
17.6116
17.0945
16.2133
15.4986
19.9747
19.9328
19.8966
19.8631
19.8312
19.7961
19.7607
19.7271
19.6926
19.6579
19.6231
19.5872
19.5523
19.519
19.4853
19.4502
19.4142
19.3782
19.343
19.3074
19.2712
19.2353
19.1998
19.1642
19.1281
19.0919
19.0555
19.0192
18.9833
18.9475
18.9127
18.8782
18.8412
18.805
18.7689
18.7322
18.6964
18.6594
18.6183
18.5731
18.5239
18.4583
18.3704
18.237
18.0394
17.7056
17.1398
16.1236
14.0121
10.2015
19.9772
19.9365
19.9002
19.8654
19.8303
19.7955
19.7617
19.7276
19.693
19.6581
19.6223
19.5878
19.5542
19.5197
19.4845
19.4497
19.4146
19.379
19.3431
19.3071
19.2716
19.2362
19.1998
19.1638
19.1281
19.0922
19.0561
19.0208
18.9851
18.9491
18.9134
18.8781
18.8427
18.8074
18.7722
18.7379
18.7048
18.6736
18.6453
18.6223
18.6066
18.6068
18.6303
18.704
18.8428
19.1238
19.5788
20.3669
21.4662
22.9229
19.9744
19.9316
19.8972
19.8646
19.8298
19.7947
19.761
19.7269
19.6935
19.6575
19.6215
19.5877
19.5543
19.519
19.4843
19.4495
19.415
19.3791
19.3431
19.3065
19.2716
19.2356
19.1986
19.1624
19.1278
19.0928
19.0572
19.0207
18.9847
18.9487
18.9131
18.8778
18.8429
18.8067
18.7715
18.7361
18.7036
18.6704
18.6407
18.6132
18.5915
18.5811
18.5823
18.6188
18.6933
18.8673
19.1695
19.7
20.4754
21.4425
19.9723
19.9309
19.8977
19.8653
19.8304
19.7949
19.7617
19.7277
19.6926
19.6587
19.6225
19.5879
19.5552
19.5192
19.4843
19.4502
19.4134
19.3783
19.3444
19.308
19.2718
19.2357
19.1994
19.1642
19.1277
19.0915
19.0567
19.0212
18.9846
18.9487
18.9139
18.8779
18.8421
18.8061
18.7698
18.7349
18.7007
18.6659
18.6326
18.5978
18.567
18.5322
18.5057
18.4685
18.4555
18.4178
18.4558
18.4579
18.7062
18.7923
19.9741
19.9327
19.8979
19.864
19.8294
19.7951
19.7614
19.7266
19.6913
19.6575
19.623
19.5881
19.5545
19.5185
19.4839
19.4501
19.4141
19.3785
19.3433
19.3068
19.2713
19.2351
19.1985
19.1642
19.1282
19.0918
19.0561
19.0202
18.9853
18.9492
18.9127
18.8774
18.8421
18.8057
18.7688
18.7319
18.6965
18.6624
18.625
18.5831
18.5395
18.4879
18.4227
18.3316
18.1997
17.9906
17.6418
17.12
16.2873
15.5413
19.9774
19.9369
19.9
19.865
19.8308
19.7963
19.7617
19.7272
19.6925
19.658
19.6233
19.5883
19.5538
19.5192
19.4846
19.4499
19.4143
19.3786
19.3432
19.3072
19.2715
19.2357
19.1998
19.1642
19.1281
19.0919
19.056
19.0201
18.9843
18.9485
18.9129
18.8774
18.8413
18.8053
18.7691
18.7326
18.6964
18.6593
18.6189
18.5728
18.5232
18.457
18.3715
18.2379
18.0425
17.7054
17.1485
16.1335
14.0337
10.2795
24.2754
24.3768
24.3711
24.5515
25.1369
22.6338
23.4639
24.1219
24.6928
25.6059
19.483
20.8506
22.7546
24.2625
25.8839
14.8897
16.7901
20.0709
22.1118
24.2742
2.16759
8.42834
15.183
17.9397
20.2066
24.3262
24.434
24.4011
24.5829
25.1173
22.3644
23.1693
24.0224
24.9535
26.0493
19.2557
20.4777
22.6187
24.8666
26.9622
14.78
16.3278
19.875
22.8298
25.525
2.78638
7.29359
14.6111
18.6695
21.4151
24.3462
24.4449
24.4102
24.5961
25.145
22.3069
23.1416
24.0778
25.1546
26.2527
19.2105
20.4552
22.7581
25.2511
27.4106
14.7523
16.2964
20.0597
23.3438
25.9502
2.86486
7.02052
14.6652
19.1887
21.7454
24.3309
24.4448
24.4066
24.5841
25.1112
22.3766
23.1807
24.0321
24.9475
26.0234
19.2834
20.5026
22.628
24.8533
26.9564
14.8239
16.3762
19.9345
22.8531
25.504
3.03923
7.32494
14.5811
18.6767
21.4156
24.2743
24.3824
24.3845
24.5692
25.133
22.6286
23.4515
24.13
24.7032
25.5931
19.5008
20.8609
22.7638
24.2799
25.9047
14.9364
16.8392
20.1186
22.1555
24.2776
2.39008
8.49673
15.1834
17.9508
20.2119
24.831
24.831
24.831
24.831
24.831
24.831
24.831
24.831
24.831
24.831
24.831
24.831
24.831
24.831
24.831
24.831
24.831
24.831
24.831
24.831
24.831
24.831
24.831
24.831
24.831
24.831
24.831
24.831
24.831
24.831
24.831
24.831
24.831
24.831
24.831
24.831
24.831
24.831
24.831
24.831
24.831
24.831
24.831
24.831
24.831
24.831
24.831
24.831
24.831
24.831
24.831
24.831
24.831
24.831
24.831
24.831
24.831
24.831
24.831
24.831
24.831
24.831
24.831
24.831
24.831
24.831
24.831
24.831
24.831
24.831
24.8311
24.8311
24.8311
24.8311
24.8311
24.8311
24.8311
24.8311
24.8311
24.8311
24.8311
24.8311
24.8311
24.8311
24.8311
24.8311
24.8311
24.8311
24.8311
24.8311
24.8311
24.8311
24.8311
24.8311
24.8311
24.8311
24.8311
24.8311
24.8311
24.8311
24.8311
24.8311
24.8311
24.8311
24.8311
24.8311
24.8311
24.8311
24.8311
24.8311
24.8311
24.8311
24.8311
24.8311
24.8311
24.8311
24.8311
24.8311
24.8311
24.8311
24.8311
24.8311
24.8311
24.8311
24.8311
24.8311
24.8311
24.8311
24.8311
24.8311
24.8311
24.8311
24.8311
24.8311
24.831
24.8311
24.8311
24.8311
24.831
24.831
24.8312
24.8311
24.8311
24.831
24.8309
24.8313
24.8312
24.8311
24.8309
24.8308
24.8314
24.8313
24.8311
24.8308
24.8306
24.8316
24.8316
24.8313
24.8307
24.8301
24.832
24.8321
24.8317
24.8305
24.8292
24.8327
24.8332
24.8324
24.8299
24.8274
24.8336
24.8349
24.8321
24.8259
24.8234
24.8308
24.8264
24.8195
24.8126
24.8108
24.8143
24.8018
24.7955
24.7957
24.795
24.7838
24.7688
24.767
24.7774
24.7777
24.7321
24.7149
24.7198
24.7432
24.75
24.6523
24.6287
24.6392
24.6723
24.6974
24.5507
24.5131
24.5124
24.553
24.6044
24.4329
24.3731
24.352
24.3926
24.4707
24.318
24.2412
24.2018
24.232
24.331
24.2294
24.1493
24.0972
24.1203
24.2334
24.1819
24.1202
24.0784
24.0915
24.199
24.1886
24.1519
24.1332
24.1246
24.2216
24.2402
24.2172
24.21
24.192
24.28
24.3056
24.2873
24.2825
24.2652
24.3528
24.3572
24.344
24.3352
24.3241
24.4503
24.3838
24.3882
24.3707
24.3702
24.6803
24.831
24.831
24.831
24.831
24.831
24.831
24.831
24.831
24.831
24.831
24.831
24.831
24.831
24.831
24.831
24.831
24.831
24.831
24.831
24.831
24.831
24.831
24.831
24.831
24.831
24.831
24.831
24.831
24.831
24.831
24.831
24.831
24.831
24.831
24.831
24.831
24.831
24.831
24.831
24.831
24.831
24.831
24.831
24.831
24.831
24.831
24.831
24.831
24.831
24.831
24.831
24.831
24.831
24.831
24.831
24.831
24.831
24.831
24.831
24.831
24.831
24.831
24.831
24.831
24.831
24.831
24.831
24.831
24.831
24.831
24.8311
24.8311
24.8311
24.8311
24.8311
24.8311
24.8311
24.8311
24.8311
24.8311
24.8311
24.8311
24.8311
24.8311
24.8311
24.8311
24.8311
24.8311
24.8311
24.8311
24.8311
24.8311
24.8311
24.8311
24.8311
24.8311
24.8311
24.8311
24.8311
24.8311
24.8311
24.8311
24.8311
24.8311
24.8311
24.8311
24.8311
24.8311
24.8311
24.8311
24.8311
24.8311
24.8311
24.8311
24.8311
24.8311
24.8311
24.8311
24.8311
24.8311
24.8311
24.8311
24.8311
24.8311
24.8311
24.8311
24.8311
24.8311
24.8311
24.831
24.8311
24.8311
24.8311
24.831
24.831
24.8311
24.8311
24.8311
24.831
24.831
24.8311
24.8311
24.831
24.831
24.8309
24.8312
24.8311
24.831
24.8309
24.8307
24.8312
24.8311
24.8309
24.8307
24.8304
24.8313
24.8312
24.8308
24.8303
24.8298
24.8314
24.8313
24.8307
24.8296
24.8286
24.8312
24.8311
24.8298
24.8278
24.8255
24.8298
24.8297
24.8255
24.8201
24.8171
24.8223
24.8157
24.8013
24.7931
24.7906
24.7998
24.7799
24.7623
24.7592
24.7619
24.7606
24.7348
24.7321
24.7436
24.7528
24.7038
24.6864
24.708
24.7331
24.7435
24.6315
24.6269
24.6506
24.6825
24.7016
24.5433
24.5302
24.5398
24.5671
24.614
24.4353
24.3962
24.3806
24.395
24.4737
24.3215
24.2544
24.2105
24.202
24.313
24.2266
24.1415
24.0935
24.057
24.1825
24.1732
24.0888
24.0533
24.0058
24.1355
24.1732
24.1135
24.0925
24.0604
24.1746
24.2266
24.1914
24.189
24.1651
24.2634
24.3039
24.2809
24.2775
24.2531
24.3575
24.3695
24.3543
24.3453
24.3282
24.4437
24.4112
24.407
24.3863
24.3598
24.5942
24.831
24.831
24.831
24.831
24.831
24.831
24.831
24.831
24.831
24.831
24.831
24.831
24.831
24.831
24.831
24.831
24.831
24.831
24.831
24.831
24.831
24.831
24.831
24.831
24.831
24.831
24.831
24.831
24.831
24.831
24.831
24.831
24.831
24.831
24.831
24.831
24.831
24.831
24.831
24.831
24.831
24.831
24.831
24.831
24.831
24.831
24.831
24.831
24.831
24.831
24.831
24.831
24.831
24.831
24.831
24.831
24.831
24.831
24.831
24.831
24.831
24.831
24.831
24.831
24.831
24.831
24.831
24.831
24.831
24.831
24.8311
24.8311
24.8311
24.8311
24.8311
24.8311
24.8311
24.8311
24.8311
24.8311
24.8311
24.8311
24.8311
24.8311
24.8311
24.8311
24.8311
24.8311
24.8311
24.8311
24.8311
24.8311
24.8311
24.8311
24.8311
24.8311
24.8311
24.8311
24.8311
24.8311
24.8311
24.8311
24.8311
24.8311
24.8311
24.8311
24.8311
24.8311
24.8311
24.8311
24.8311
24.8311
24.8311
24.8311
24.8311
24.8311
24.8311
24.8311
24.8311
24.8311
24.8311
24.8311
24.8311
24.8311
24.8311
24.8311
24.8311
24.8311
24.8311
24.8311
24.8311
24.8311
24.8311
24.8311
24.8311
24.8312
24.8311
24.8311
24.8311
24.831
24.8312
24.8312
24.8311
24.8311
24.831
24.8313
24.8313
24.8311
24.831
24.8308
24.8314
24.8313
24.8311
24.8308
24.8305
24.8315
24.8313
24.831
24.8305
24.83
24.8314
24.8313
24.8307
24.8299
24.8289
24.831
24.8308
24.8298
24.8284
24.8272
24.8288
24.8288
24.8274
24.8254
24.8239
24.8215
24.8209
24.8181
24.8178
24.8175
24.8041
24.8017
24.802
24.8076
24.8077
24.7723
24.7705
24.7742
24.7807
24.7837
24.7247
24.7207
24.722
24.7346
24.7473
24.6539
24.6458
24.6463
24.6672
24.6969
24.5604
24.5403
24.5322
24.5545
24.6094
24.4468
24.4065
24.3843
24.3941
24.4814
24.3298
24.2662
24.23
24.2184
24.3334
24.2328
24.1455
24.1105
24.0838
24.2082
24.1775
24.0882
24.0645
24.0424
24.1628
24.1785
24.1183
24.1084
24.0986
24.2013
24.2363
24.2038
24.2051
24.1935
24.2826
24.3162
24.2935
24.2904
24.2727
24.3659
24.3843
24.3644
24.3489
24.3268
24.4421
24.4203
24.4125
24.3816
24.3509
24.5761
24.831
24.831
24.831
24.831
24.831
24.831
24.831
24.831
24.831
24.831
24.831
24.831
24.831
24.831
24.831
24.831
24.831
24.831
24.831
24.831
24.831
24.831
24.831
24.831
24.831
24.831
24.831
24.831
24.831
24.831
24.831
24.831
24.831
24.831
24.831
24.831
24.831
24.831
24.831
24.831
24.831
24.831
24.831
24.831
24.831
24.831
24.831
24.831
24.831
24.831
24.831
24.831
24.831
24.831
24.831
24.831
24.831
24.831
24.831
24.831
24.831
24.831
24.831
24.831
24.831
24.831
24.831
24.831
24.831
24.831
24.8311
24.8311
24.8311
24.8311
24.8311
24.8311
24.8311
24.8311
24.8311
24.8311
24.8311
24.8311
24.8311
24.8311
24.8311
24.8311
24.8311
24.8311
24.8311
24.8311
24.8311
24.8311
24.8311
24.8311
24.8311
24.8311
24.8311
24.8311
24.8311
24.8311
24.8311
24.8311
24.8311
24.8311
24.8311
24.8311
24.8311
24.8311
24.8311
24.8311
24.8311
24.8311
24.8311
24.8311
24.8311
24.8311
24.8311
24.8311
24.8311
24.8311
24.8311
24.8311
24.8311
24.8311
24.8311
24.8311
24.8311
24.8311
24.8311
24.8311
24.8311
24.8311
24.8311
24.8311
24.831
24.8312
24.8311
24.8311
24.8311
24.831
24.8312
24.8312
24.8311
24.831
24.831
24.8313
24.8312
24.8311
24.831
24.8309
24.8315
24.8314
24.8312
24.831
24.8307
24.8317
24.8316
24.8313
24.8308
24.8303
24.8319
24.8319
24.8315
24.8306
24.8295
24.832
24.8322
24.8313
24.8292
24.827
24.8309
24.8316
24.8292
24.8239
24.82
24.8243
24.8211
24.8046
24.7937
24.7885
24.8019
24.7831
24.7575
24.7572
24.7595
24.7609
24.7298
24.7259
24.7368
24.7471
24.7022
24.6788
24.7027
24.7239
24.7371
24.629
24.6217
24.6479
24.6892
24.7087
24.5401
24.5254
24.5338
24.5675
24.6173
24.4317
24.393
24.3683
24.3806
24.4676
24.3195
24.255
24.2059
24.1806
24.3005
24.226
24.1428
24.0871
24.0261
24.1764
24.1727
24.0913
24.0572
23.9893
24.1452
24.1768
24.1202
24.1123
24.0647
24.1943
24.2323
24.1994
24.2022
24.1693
24.278
24.3084
24.287
24.2827
24.2591
24.3543
24.3736
24.3583
24.3437
24.3193
24.4243
24.4143
24.411
24.3842
24.3562
24.5853
24.831
24.831
24.831
24.831
24.831
24.831
24.831
24.831
24.831
24.831
24.831
24.831
24.831
24.831
24.831
24.831
24.831
24.831
24.831
24.831
24.831
24.831
24.831
24.831
24.831
24.831
24.831
24.831
24.831
24.831
24.831
24.831
24.831
24.831
24.831
24.831
24.831
24.831
24.831
24.831
24.831
24.831
24.831
24.831
24.831
24.831
24.831
24.831
24.831
24.831
24.831
24.831
24.831
24.831
24.831
24.831
24.831
24.831
24.831
24.831
24.831
24.831
24.831
24.831
24.831
24.831
24.831
24.831
24.831
24.831
24.8311
24.8311
24.8311
24.8311
24.8311
24.8311
24.8311
24.8311
24.8311
24.8311
24.8311
24.8311
24.8311
24.8311
24.8311
24.8311
24.8311
24.8311
24.8311
24.8311
24.8311
24.8311
24.8311
24.8311
24.8311
24.8311
24.8311
24.8311
24.8311
24.8311
24.8311
24.8311
24.8311
24.8311
24.8311
24.8311
24.8311
24.8311
24.8311
24.8311
24.8311
24.8311
24.8311
24.8311
24.8311
24.8311
24.8311
24.8311
24.8311
24.8311
24.8311
24.8311
24.8311
24.8311
24.8311
24.8311
24.8311
24.8311
24.8311
24.8311
24.8311
24.8311
24.8311
24.8311
24.8311
24.8312
24.8312
24.8311
24.8311
24.8311
24.8313
24.8313
24.8312
24.8311
24.8311
24.8314
24.8314
24.8313
24.8312
24.831
24.8317
24.8317
24.8315
24.8313
24.831
24.8322
24.8322
24.832
24.8316
24.831
24.8329
24.8332
24.833
24.8321
24.8309
24.8341
24.835
24.8351
24.833
24.8304
24.8353
24.8379
24.8377
24.8323
24.8294
24.8337
24.8327
24.8258
24.8169
24.8133
24.8177
24.8073
24.7958
24.7924
24.7905
24.7845
24.767
24.7611
24.7691
24.7709
24.7283
24.707
24.7107
24.7361
24.7453
24.6469
24.6223
24.6331
24.6693
24.6966
24.545
24.5041
24.5023
24.5468
24.6027
24.4252
24.3619
24.3414
24.3834
24.4654
24.3122
24.234
24.1976
24.2256
24.3248
24.227
24.149
24.0867
24.1136
24.2304
24.1833
24.1242
24.0914
24.0895
24.2028
24.1945
24.1605
24.1524
24.1218
24.2318
24.2454
24.2213
24.2137
24.1954
24.2921
24.3081
24.2896
24.2881
24.2707
24.3563
24.3585
24.3461
24.3386
24.3241
24.4464
24.3856
24.3916
24.3767
24.3758
24.6819
-17.7727
-3.42905
5.78765
10.6449
14.0403
-15.7609
-11.9877
-3.6141
2.29602
6.45545
-15.6156
-14.6131
-9.27413
-4.05009
-0.55232
-15.7767
-14.8686
-11.9315
-8.04822
-5.5425
-15.3292
-14.5645
-13.1261
-10.3907
-8.57971
-14.362
-13.9403
-13.5787
-11.6757
-10.3675
-13.5198
-13.2759
-13.3426
-12.2116
-11.342
-13.0141
-13.0945
-12.7845
-12.315
-11.8096
-12.6854
-13.102
-12.5851
-12.4335
-11.9965
-12.2558
-13.0394
-12.6136
-12.5365
-12.0517
-11.6733
-12.4408
-12.3795
-12.4235
-11.986
-11.3977
-11.7728
-11.9833
-12.22
-11.8754
-11.633
-11.7022
-11.9817
-12.2284
-11.8934
-12.0568
-12.0998
-12.2981
-12.3834
-11.9971
-12.3643
-12.4334
-12.4769
-12.4976
-12.1069
-12.3955
-12.5285
-12.462
-12.5032
-12.1298
-12.375
-12.4935
-12.3725
-12.4433
-12.066
-12.3983
-12.529
-12.2973
-12.3324
-11.9487
-12.3268
-12.467
-12.1494
-12.154
-11.7543
-12.0869
-12.1827
-11.8762
-11.8786
-11.4672
-11.7645
-11.8057
-11.5455
-11.5134
-11.0809
-11.4962
-11.6018
-11.2015
-11.0548
-10.579
-11.2472
-11.4196
-10.6629
-10.3991
-9.89205
-10.5198
-10.6051
-9.70439
-9.42157
-8.94823
-8.94019
-8.96897
-8.29688
-8.13994
-7.74866
-6.92298
-6.99217
-6.69193
-6.70663
-6.41473
-4.98591
-5.17695
-5.16885
-5.30032
-5.10081
-3.39717
-3.66504
-3.85444
-4.03165
-3.9081
-2.20866
-2.50089
-2.75426
-2.94065
-2.86893
-1.33527
-1.61247
-1.84627
-2.02222
-1.98025
-0.66451
-0.904597
-1.08248
-1.25556
-1.22239
-0.074581
-0.314319
-0.409888
-0.59949
-0.623045
0.522673
0.245509
0.186321
-0.0129441
-0.169121
0.951129
0.75922
0.674106
0.510008
0.193372
0.950639
0.927983
0.861193
0.783203
0.383732
0.578208
0.676356
0.678416
0.70323
0.302732
0.0508931
0.184315
0.238686
0.178169
-0.0502481
-0.493322
-0.412454
-0.347941
-0.579125
-0.500293
-0.939299
-0.924536
-0.949313
-1.38321
-0.891315
-1.11401
-1.16299
-1.26181
-1.75915
-1.17305
-1.06266
-1.18031
-1.33532
-1.64991
-1.17958
-0.846785
-1.01282
-1.25513
-1.24904
-0.983432
-0.56434
-0.730637
-0.963426
-0.815519
-0.702545
-0.246054
-0.378242
-0.56974
-0.457358
-0.425721
0.0760704
-0.00649105
-0.113149
-0.121283
-0.168897
0.340414
0.234008
0.217776
0.159242
0.0349563
0.520293
0.394419
0.37353
0.276473
0.162558
0.623119
0.5237
0.395054
0.336665
0.247038
0.535031
0.578102
0.354807
0.273808
0.192605
0.251237
0.478984
0.2835
0.196369
0.125811
-17.0155
-6.78238
4.34537
11.1695
15.2666
-15.87
-14.4613
-4.88299
2.65868
7.38933
-16.1739
-15.0396
-9.58171
-3.80433
0.172728
-16.0005
-15.0011
-12.0663
-8.00185
-4.95554
-15.4068
-14.7301
-13.3088
-10.4654
-8.3029
-14.5124
-14.2093
-13.7373
-11.7787
-10.338
-13.7143
-13.5599
-13.5601
-12.3334
-11.4796
-13.3089
-13.4386
-13.1725
-12.4861
-11.987
-13.1802
-14.065
-13.1326
-12.6451
-12.2015
-12.913
-14.2259
-13.06
-12.7252
-12.2668
-12.1575
-13.0814
-12.5372
-12.5505
-12.1837
-11.8083
-12.0185
-11.9663
-12.2942
-12.0556
-12.051
-12.2771
-12.095
-12.3438
-12.1028
-12.3984
-12.6881
-12.4308
-12.6237
-12.2375
-12.571
-12.7987
-12.5014
-12.6924
-12.3377
-12.5205
-12.7044
-12.4355
-12.6606
-12.3415
-12.4244
-12.5816
-12.3588
-12.593
-12.2774
-12.3595
-12.499
-12.276
-12.4772
-12.1552
-12.2342
-12.3567
-12.1104
-12.2744
-11.9507
-11.9969
-12.0584
-11.801
-12.0029
-11.6667
-11.7111
-11.6884
-11.5087
-11.6663
-11.2923
-11.4706
-11.6229
-11.2512
-11.2496
-10.8091
-11.2441
-11.7036
-10.8145
-10.625
-10.1373
-10.4998
-10.9433
-9.88518
-9.70932
-9.20819
-8.93322
-9.23602
-8.4188
-8.44865
-8.00346
-6.97837
-7.20242
-6.7597
-6.99383
-6.6432
-5.08983
-5.32133
-5.19233
-5.54881
-5.29983
-3.52593
-3.76575
-3.84705
-4.23859
-4.07582
-2.3497
-2.58086
-2.7517
-3.11796
-3.01214
-1.48488
-1.70426
-1.8658
-2.17862
-2.11084
-0.813566
-1.02221
-1.12968
-1.38941
-1.33619
-0.234279
-0.43906
-0.479887
-0.729411
-0.734676
0.325663
0.0805831
0.0686246
-0.150636
-0.261555
0.689685
0.525965
0.468249
0.284488
0.059279
0.636518
0.558753
0.538826
0.465676
0.208366
0.256939
0.200846
0.233718
0.254577
0.0844789
-0.227846
-0.3277
-0.261851
-0.239895
-0.247598
-0.700926
-0.863946
-0.815455
-0.794681
-0.639389
-1.00946
-1.2325
-1.266
-1.29024
-0.980479
-1.11662
-1.34146
-1.4453
-1.56665
-1.15894
-1.06698
-1.2892
-1.40512
-1.52182
-1.15457
-0.915767
-1.1142
-1.23587
-1.22981
-0.975122
-0.692153
-0.868327
-0.929656
-0.848549
-0.710017
-0.382967
-0.562864
-0.554942
-0.506414
-0.432927
-0.053203
-0.249102
-0.200063
-0.225025
-0.191824
0.234461
0.062556
0.0914041
0.0709897
0.0239014
0.389883
0.279885
0.259617
0.263968
0.152524
0.426347
0.398137
0.341448
0.351692
0.21865
0.286336
0.358238
0.30194
0.272842
0.16574
0.133984
0.203576
0.176438
0.171742
0.100063
-16.9009
-7.13443
4.25025
11.5833
15.4753
-15.7058
-14.2484
-4.64451
3.13972
7.48466
-16.0041
-14.7103
-9.36489
-3.40731
0.295365
-15.8728
-14.9759
-12.0914
-7.74758
-4.82885
-15.3777
-14.978
-13.4725
-10.2385
-8.22853
-14.6868
-14.7609
-13.9039
-11.5118
-10.2963
-13.9863
-14.2858
-13.7049
-12.0648
-11.3953
-13.5539
-14.0228
-13.2816
-12.1594
-11.8373
-13.2448
-14.1613
-12.936
-12.146
-11.9484
-12.7477
-13.1976
-12.2334
-11.9677
-11.8831
-11.8988
-11.6807
-11.3875
-11.6646
-11.6946
-11.9491
-11.4694
-11.2918
-11.5697
-11.6
-12.5609
-12.6838
-11.9743
-11.9031
-11.7835
-12.8808
-13.1994
-12.3813
-12.2113
-12.0049
-12.8476
-13.1482
-12.4199
-12.3488
-12.1468
-12.642
-12.9455
-12.3466
-12.3617
-12.1734
-12.4878
-12.8078
-12.3024
-12.3123
-12.1259
-12.3847
-12.6211
-12.191
-12.1915
-12.0174
-12.2223
-12.3355
-11.9061
-11.9923
-11.8135
-11.9689
-12.0951
-11.6951
-11.7736
-11.5431
-11.7126
-12.045
-11.6218
-11.5495
-11.2207
-11.5159
-12.1147
-11.4958
-11.1999
-10.7841
-11.2205
-11.9363
-11.0281
-10.5829
-10.1351
-10.4178
-10.9016
-9.98721
-9.62099
-9.18044
-8.9124
-9.13139
-8.43603
-8.30093
-7.94085
-7.01078
-7.11729
-6.7094
-6.80936
-6.5513
-5.1265
-5.21033
-5.08744
-5.35135
-5.18752
-3.5501
-3.6452
-3.71286
-4.04591
-3.95585
-2.35187
-2.48404
-2.61988
-2.93969
-2.89308
-1.50395
-1.64247
-1.74999
-2.01793
-1.99455
-0.85587
-0.988025
-1.03543
-1.2418
-1.23247
-0.283478
-0.42416
-0.399525
-0.591891
-0.659401
0.229138
0.0469196
0.108467
-0.0351604
-0.215433
0.568432
0.360927
0.419898
0.340197
0.107546
0.600884
0.437687
0.459736
0.400438
0.19628
0.372852
0.222834
0.207658
0.171563
0.0700061
-0.0443284
-0.203168
-0.224479
-0.249729
-0.213163
-0.491099
-0.656078
-0.701176
-0.717299
-0.561155
-0.836861
-1.03486
-1.11818
-1.1079
-0.858666
-1.01005
-1.22505
-1.35427
-1.31158
-1.02215
-1.0443
-1.26593
-1.35395
-1.27539
-1.01713
-0.954168
-1.14822
-1.16486
-1.04924
-0.857123
-0.720807
-0.860931
-0.826041
-0.729309
-0.620233
-0.382038
-0.487313
-0.426632
-0.398533
-0.364529
-0.00829511
-0.119986
-0.0668941
-0.098519
-0.131646
0.280992
0.169526
0.193869
0.154944
0.0744166
0.457714
0.406641
0.346477
0.338379
0.215814
0.48442
0.430737
0.38901
0.414138
0.312783
0.354772
0.450815
0.337192
0.316111
0.21634
0.0822672
0.220443
0.178932
0.215843
0.141486
-16.4511
-6.33734
4.29331
11.0375
15.2227
-15.5301
-13.5967
-4.86138
2.56654
7.32186
-15.7767
-14.5249
-9.97431
-3.98467
0.0787797
-15.7279
-15.1261
-12.8606
-8.28587
-5.12653
-15.4436
-15.4317
-14.2969
-10.765
-8.54975
-15.014
-15.5089
-14.6479
-12.0655
-10.6147
-14.4802
-15.2114
-14.3535
-12.5977
-11.7199
-13.8932
-14.4657
-13.6697
-12.6249
-12.1081
-13.1282
-13.4516
-12.7281
-12.3808
-12.0905
-11.8591
-11.7561
-11.5962
-11.9538
-11.8591
-10.8921
-9.82536
-10.4793
-11.519
-11.6037
-11.4353
-10.1041
-10.448
-11.5518
-11.5405
-12.6753
-12.015
-11.6898
-12.1044
-11.83
-13.266
-13.0596
-12.459
-12.6814
-12.1809
-13.0426
-13.1275
-12.568
-12.8389
-12.3628
-12.7322
-12.9382
-12.5548
-12.8189
-12.4067
-12.5288
-12.8102
-12.6153
-12.7786
-12.3733
-12.3911
-12.6969
-12.5933
-12.6483
-12.2696
-12.1864
-12.4558
-12.2395
-12.4233
-12.0681
-11.9453
-12.2421
-12.0067
-12.2169
-11.8005
-11.7526
-12.2295
-12.0235
-12.0301
-11.4981
-11.6244
-12.3642
-11.9984
-11.6907
-11.0793
-11.3133
-12.1522
-11.5945
-11.0384
-10.4279
-10.4732
-11.0987
-10.5346
-10.004
-9.46187
-8.97913
-9.31791
-8.88149
-8.61596
-8.18139
-7.12973
-7.2975
-7.04684
-7.07599
-6.75356
-5.25637
-5.42425
-5.34398
-5.57745
-5.35338
-3.6187
-3.83217
-3.89568
-4.23769
-4.09179
-2.37687
-2.60014
-2.7385
-3.10217
-3.00621
-1.47814
-1.68923
-1.83129
-2.16296
-2.08883
-0.812802
-0.979916
-1.08829
-1.37074
-1.31604
-0.260357
-0.408046
-0.451399
-0.720219
-0.747206
0.224403
0.0402525
0.0707931
-0.191219
-0.346133
0.57966
0.360432
0.412155
0.153418
-0.0185387
0.671631
0.439847
0.473129
0.230112
0.10845
0.447904
0.234698
0.229228
0.0596196
0.0159333
0.0109561
-0.181768
-0.21557
-0.259377
-0.228389
-0.4544
-0.656422
-0.687311
-0.640866
-0.532437
-0.819438
-1.03675
-1.06364
-0.956127
-0.793754
-0.993948
-1.21522
-1.22794
-1.13398
-0.941286
-1.00983
-1.1677
-1.14503
-1.09481
-0.939724
-0.847451
-0.986766
-0.926268
-0.906142
-0.7908
-0.561073
-0.686887
-0.617521