/*--------------------------------*- C++ -*----------------------------------*\
| =========                 |                                                 |
| \\      /  F ield         | OpenFOAM: The Open Source CFD Toolbox           |
|  \\    /   O peration     | Version:  2.1.x                                 |
|   \\  /    A nd           | Web:      www.OpenFOAM.org                      |
|    \\/     M anipulation  |                                                 |
\*---------------------------------------------------------------------------*/
FoamFile
{
    version     2.0;
    format      ascii;
    class       surfaceScalarField;
    location    "0.4";
    object      phi;
}
// * * * * * * * * * * * * * * * * * * * * * * * * * * * * * * * * * * * * * //

dimensions      [0 3 -1 0 0 0 0];

internalField   nonuniform List<scalar> 
10050
(
7.56597e-05
6.05088e-09
5.82538e-09
7.56267e-05
1.47566e-08
1.82445e-08
7.5586e-05
2.47827e-08
1.59879e-08
7.55525e-05
1.30168e-08
2.03973e-08
7.55152e-05
1.91247e-08
1.82506e-08
7.54697e-05
2.05788e-08
2.48795e-08
7.54194e-05
2.63652e-08
2.39663e-08
7.53715e-05
2.15293e-08
2.63226e-08
7.53283e-05
2.4792e-08
1.84523e-08
7.52833e-05
2.06426e-08
2.43754e-08
7.5231e-05
2.51247e-08
2.71284e-08
7.51761e-05
2.15725e-08
3.32913e-08
7.51162e-05
3.36021e-08
2.63009e-08
7.50523e-05
3.17253e-08
3.22578e-08
7.4989e-05
3.69129e-08
2.63144e-08
7.49231e-05
3.29323e-08
3.303e-08
7.4846e-05
4.71385e-08
2.99314e-08
7.47719e-05
3.85126e-08
3.5588e-08
7.46946e-05
4.36589e-08
3.36173e-08
7.46175e-05
3.58264e-08
4.13425e-08
7.4545e-05
3.96844e-08
3.28033e-08
7.44704e-05
3.62714e-08
3.8275e-08
7.43912e-05
4.45334e-08
3.46951e-08
7.43146e-05
3.39409e-08
4.26429e-08
7.42316e-05
4.7153e-08
3.5867e-08
7.41559e-05
3.51361e-08
4.0606e-08
7.40805e-05
4.02843e-08
3.50327e-08
7.4008e-05
3.37864e-08
3.87147e-08
7.39364e-05
3.794e-08
3.37291e-08
7.38677e-05
3.00688e-08
3.8568e-08
7.38001e-05
4.06561e-08
2.70236e-08
7.37378e-05
2.5254e-08
3.70307e-08
7.3671e-05
3.81723e-08
2.85766e-08
7.36117e-05
2.77087e-08
3.16138e-08
7.35452e-05
3.8845e-08
2.76153e-08
7.34824e-05
3.19433e-08
3.08975e-08
7.3411e-05
4.82014e-08
2.32042e-08
7.33274e-05
4.4843e-08
3.87699e-08
7.32252e-05
7.51016e-08
2.7039e-08
7.31186e-05
7.49028e-08
3.17792e-08
7.29455e-05
1.50949e-07
2.21002e-08
7.27222e-05
1.78644e-07
4.4617e-08
7.23382e-05
3.70836e-07
1.32109e-08
7.17611e-05
5.02236e-07
7.48621e-08
7.07238e-05
1.03539e-06
1.935e-09
6.91592e-05
1.42642e-06
1.38193e-07
6.6354e-05
2.7815e-06
2.36653e-08
6.19162e-05
4.09589e-06
3.41923e-07
5.39944e-05
7.55433e-06
3.6743e-07
1.17312e-05
8.58233e-07
4.1405e-05
8.08941e-05
2.05226e-09
5.78892e-09
8.08918e-05
4.61442e-09
1.24786e-08
8.08851e-05
6.52225e-09
2.49274e-08
8.08621e-05
6.72801e-09
2.92728e-08
8.08474e-05
4.15139e-09
2.96531e-08
8.08398e-05
5.41598e-09
2.28247e-08
8.08371e-05
6.20421e-09
2.2816e-08
8.08334e-05
1.80292e-09
2.34194e-08
8.08195e-05
1.02951e-08
2.84069e-08
8.07981e-05
1.42915e-08
2.77432e-08
8.07822e-05
1.0861e-08
3.02202e-08
8.07661e-05
8.34888e-09
2.9245e-08
8.07576e-05
1.4207e-08
2.79252e-08
8.07517e-05
1.18884e-08
2.57546e-08
8.07436e-05
1.38149e-08
3.11978e-08
8.0729e-05
1.89165e-08
2.86284e-08
8.07411e-05
1.13137e-08
2.37549e-08
8.07513e-05
5.31762e-09
2.29785e-08
8.07535e-05
1.30357e-08
2.84446e-08
8.07449e-05
1.56662e-08
2.86929e-08
8.07308e-05
1.71432e-08
3.66835e-08
8.07177e-05
1.75486e-08
3.1766e-08
8.07046e-05
2.35708e-08
3.41396e-08
8.06858e-05
2.0866e-08
3.18354e-08
8.06953e-05
1.06344e-08
2.6996e-08
8.06965e-05
7.29303e-09
2.67062e-08
8.06927e-05
1.15825e-08
3.24521e-08
8.06866e-05
1.26795e-08
2.71742e-08
8.06695e-05
2.09633e-08
3.41541e-08
8.06537e-05
1.77544e-08
2.80905e-08
8.0654e-05
1.25801e-08
2.77465e-08
8.06358e-05
1.57665e-08
2.76748e-08
8.06199e-05
2.40476e-08
3.00176e-08
8.05951e-05
2.60771e-08
2.64388e-08
8.0583e-05
2.22293e-08
2.8769e-08
8.0572e-05
2.17873e-08
2.11681e-08
8.05609e-05
3.33182e-08
2.60001e-08
8.05449e-05
3.81769e-08
2.2646e-08
8.05258e-05
7.03306e-08
2.37984e-08
8.04849e-05
9.55434e-08
2.03278e-08
8.0414e-05
1.92538e-07
2.93195e-08
8.03202e-05
2.49616e-07
2.27825e-08
8.01148e-05
5.36386e-07
3.98709e-08
7.98612e-05
7.53648e-07
2.16218e-09
7.92913e-05
1.55632e-06
4.9033e-08
7.8402e-05
2.34234e-06
-2.66835e-08
7.67168e-05
4.39829e-06
6.84747e-08
7.3698e-05
7.04121e-06
7.33955e-08
6.94844e-05
1.146e-05
3.07955e-07
1.88579e-05
5.68845e-07
6.17888e-05
8.0928e-05
-2.06694e-09
4.72217e-09
8.09229e-05
-5.03233e-09
1.47447e-08
8.0912e-05
-5.63692e-09
2.29749e-08
8.08961e-05
-7.05719e-09
2.96957e-08
8.08761e-05
-7.03734e-09
3.11918e-08
8.0867e-05
-9.13694e-09
2.36928e-08
8.08569e-05
-7.39968e-09
2.36715e-08
8.08358e-05
-5.91174e-09
2.88604e-08
8.08316e-05
-1.24014e-08
2.689e-08
8.08342e-05
-1.11835e-08
2.28795e-08
8.08233e-05
-5.63539e-09
2.73213e-08
8.08124e-05
-1.01512e-08
2.94416e-08
8.0822e-05
-1.75658e-08
2.2217e-08
8.08335e-05
-2.07112e-08
2.10849e-08
8.08397e-05
-1.77477e-08
2.53054e-08
8.08545e-05
-1.77006e-08
2.18901e-08
8.08554e-05
-1.66783e-08
2.708e-08
8.0838e-05
-1.14448e-08
3.40973e-08
8.08278e-05
-7.85737e-09
3.11818e-08
8.08192e-05
-6.1497e-09
3.04023e-08
8.08108e-05
-9.13594e-09
3.46928e-08
8.08032e-05
-6.7654e-09
3.18295e-08
8.07965e-05
1.12283e-09
2.91526e-08
8.0794e-05
-6.32263e-09
2.97068e-08
8.07877e-05
-1.57223e-08
3.26621e-08
8.07709e-05
-1.19369e-08
3.60036e-08
8.07561e-05
-9.37415e-09
3.58131e-08
8.07527e-05
-1.44863e-08
3.05235e-08
8.07668e-05
-1.85501e-08
2.54683e-08
8.07756e-05
-1.7716e-08
2.66119e-08
8.07669e-05
-1.29784e-08
3.43275e-08
8.0759e-05
-1.11342e-08
3.4794e-08
8.07711e-05
-1.4912e-08
2.6782e-08
8.07772e-05
-7.17045e-09
2.71628e-08
8.07664e-05
1.39189e-09
3.16532e-08
8.07586e-05
-2.55878e-09
3.21193e-08
8.07562e-05
6.7538e-09
2.90051e-08
8.07491e-05
1.46968e-08
3.05817e-08
8.07523e-05
4.34366e-08
2.36791e-08
8.07416e-05
7.04725e-08
3.57406e-08
8.07652e-05
1.46833e-07
2.21612e-08
8.07344e-05
2.43843e-07
3.65959e-08
8.08087e-05
4.47707e-07
1.43122e-08
8.07296e-05
7.70312e-07
6.25009e-08
8.08568e-05
1.43054e-06
-1.48077e-09
8.05399e-05
2.54173e-06
1.17543e-07
8.0544e-05
4.37976e-06
1.44122e-08
7.92272e-05
8.10701e-06
2.51041e-07
7.7878e-05
1.26451e-05
1.64081e-07
2.24078e-05
5.81923e-07
7.37461e-05
8.06871e-05
-6.03413e-09
5.65635e-09
8.06872e-05
-1.81762e-08
1.30725e-08
8.06802e-05
-2.20307e-08
2.33178e-08
8.06599e-05
-1.54852e-08
2.87855e-08
8.06396e-05
-1.54577e-08
2.87299e-08
8.06295e-05
-2.33715e-08
2.42841e-08
8.06258e-05
-2.60322e-08
2.23967e-08
8.06155e-05
-2.31485e-08
2.75177e-08
8.05913e-05
-1.91759e-08
3.09934e-08
8.05789e-05
-2.50496e-08
2.62711e-08
8.05806e-05
-2.98687e-08
2.25353e-08
8.05689e-05
-2.64305e-08
2.79512e-08
8.05498e-05
-2.85483e-08
3.00984e-08
8.05308e-05
-3.15911e-08
2.98132e-08
8.05188e-05
-3.46762e-08
2.89195e-08
8.05127e-05
-3.82728e-08
2.6749e-08
8.05067e-05
-3.87792e-08
2.80491e-08
8.05047e-05
-3.71134e-08
2.76777e-08
8.05163e-05
-4.32816e-08
2.38842e-08
8.05255e-05
-4.26783e-08
2.72719e-08
8.05138e-05
-3.44558e-08
3.70496e-08
8.05099e-05
-3.6608e-08
3.37032e-08
8.05297e-05
-4.31893e-08
2.45389e-08
8.05304e-05
-3.76486e-08
3.06482e-08
8.0507e-05
-3.11562e-08
3.88475e-08
8.04902e-05
-3.19342e-08
3.67326e-08
8.04845e-05
-3.52887e-08
3.16106e-08
8.04749e-05
-3.59236e-08
3.10944e-08
8.04588e-05
-3.59524e-08
3.34609e-08
8.04442e-05
-3.48805e-08
3.18066e-08
8.04345e-05
-3.51046e-08
3.18331e-08
8.04198e-05
-2.93634e-08
3.28453e-08
8.04062e-05
-3.29679e-08
3.16771e-08
8.04042e-05
-3.13706e-08
2.62469e-08
8.04071e-05
-3.26308e-08
3.11228e-08
8.03951e-05
-2.34565e-08
3.29266e-08
8.03903e-05
-1.97522e-08
3.1258e-08
8.03921e-05
-1.49083e-08
2.78132e-08
8.04038e-05
-2.78727e-09
3.44927e-08
8.04206e-05
2.63921e-08
2.73319e-08
8.04894e-05
5.42506e-08
2.37781e-08
8.05824e-05
1.28668e-07
2.21095e-08
8.07316e-05
2.76364e-07
2.21632e-08
8.10076e-05
4.6661e-07
2.76971e-08
8.14638e-05
9.40868e-07
3.34644e-08
8.2406e-05
1.53295e-06
6.65986e-08
8.36606e-05
3.03881e-06
8.63875e-08
8.66336e-05
4.96106e-06
1.72991e-07
8.71441e-05
1.18957e-05
2.38888e-07
2.12468e-05
4.28244e-07
8.78769e-05
7.57028e-05
5.01707e-09
7.56706e-05
1.40337e-08
7.56286e-05
1.9956e-08
7.55905e-05
2.26116e-08
7.5554e-05
2.10831e-08
7.55114e-05
1.92149e-08
7.54638e-05
2.15357e-08
7.54173e-05
2.34137e-08
7.53709e-05
2.72233e-08
7.53214e-05
2.44427e-08
7.52709e-05
2.05842e-08
7.52188e-05
2.57165e-08
7.51584e-05
3.18012e-08
7.50947e-05
3.21329e-08
7.50305e-05
2.94845e-08
7.49642e-05
2.80758e-08
7.48912e-05
3.42364e-08
7.48129e-05
4.12046e-08
7.47328e-05
3.6793e-08
7.46576e-05
3.24731e-08
7.45865e-05
3.6647e-08
7.45097e-05
4.02729e-08
7.44233e-05
4.31624e-08
7.43448e-05
4.08366e-08
7.42733e-05
4.04056e-08
7.41984e-05
4.28789e-08
7.41238e-05
3.93801e-08
7.40513e-05
3.65622e-08
7.39784e-05
3.69367e-08
7.39115e-05
3.20021e-08
7.38481e-05
2.82847e-08
7.37881e-05
3.06606e-08
7.37229e-05
3.22813e-08
7.36627e-05
2.87779e-08
7.35995e-05
3.0556e-08
7.35428e-05
3.33091e-08
7.34949e-05
2.80602e-08
7.34466e-05
3.34354e-08
7.34076e-05
3.61694e-08
7.33992e-05
3.4847e-08
7.34185e-05
3.49588e-08
7.35135e-05
3.36675e-08
7.37621e-05
2.77576e-08
7.42041e-05
2.45913e-08
7.51239e-05
2.108e-08
7.66237e-05
3.31365e-08
7.96427e-05
1.98528e-08
8.4473e-05
1.30719e-07
9.63559e-05
1.27737e-08
6.63074e-07
0.00011694
8.08856e-05
5.42051e-09
7.23255e-10
8.08826e-05
1.76412e-08
3.6332e-09
8.08664e-05
2.40415e-08
8.14239e-09
8.08489e-05
2.69509e-08
1.09173e-08
8.08335e-05
2.53065e-08
8.33205e-09
8.08247e-05
2.55174e-08
8.17374e-09
8.08196e-05
2.25496e-08
6.49288e-09
8.08122e-05
2.66571e-08
7.12865e-09
8.07903e-05
3.04016e-08
9.91151e-09
8.07746e-05
3.06453e-08
9.45624e-09
8.0768e-05
2.25843e-08
1.10801e-08
8.07629e-05
2.39849e-08
1.44522e-08
8.0756e-05
2.6104e-08
7.10626e-09
8.07519e-05
2.98483e-08
6.49321e-09
8.07339e-05
3.18198e-08
1.2513e-08
8.07164e-05
3.57552e-08
1.47898e-08
8.07037e-05
3.32368e-08
9.40668e-09
8.0698e-05
3.55521e-08
5.7507e-09
8.06912e-05
3.1816e-08
8.55525e-09
8.06828e-05
3.37655e-08
1.59881e-08
8.06626e-05
3.51687e-08
1.78382e-08
8.06487e-05
3.73658e-08
1.47492e-08
8.06388e-05
3.30253e-08
1.16218e-08
8.0634e-05
3.32091e-08
1.42367e-08
8.06289e-05
2.876e-08
1.21485e-08
8.06222e-05
3.1632e-08
1.56901e-08
8.06103e-05
2.98504e-08
1.70792e-08
8.06096e-05
3.15291e-08
7.9308e-09
8.06139e-05
2.57413e-08
3.63969e-09
8.06161e-05
2.77156e-08
8.67932e-09
8.05954e-05
2.9074e-08
1.8647e-08
8.05869e-05
2.68613e-08
1.87114e-08
8.05807e-05
2.22467e-08
1.24544e-08
8.05718e-05
2.72219e-08
1.33344e-08
8.05721e-05
1.95101e-08
7.80806e-09
8.05671e-05
2.53141e-08
1.05703e-08
8.0546e-05
2.89011e-08
1.53756e-08
8.05337e-05
3.60727e-08
1.50037e-08
8.04985e-05
4.56967e-08
1.65736e-08
8.04425e-05
6.8575e-08
1.92256e-08
8.0351e-05
9.85751e-08
1.50305e-08
8.01936e-05
1.92519e-07
9.46139e-09
7.99598e-05
2.4631e-07
7.22002e-10
7.94964e-05
5.36252e-07
2.03834e-09
7.87553e-05
7.50781e-07
-7.73821e-09
7.7446e-05
1.40998e-06
3.75151e-08
7.51046e-05
2.32174e-06
4.32485e-08
7.15008e-05
3.82493e-06
1.20847e-07
6.52868e-05
6.44461e-06
1.36837e-07
1.07938e-05
2.62471e-07
5.50887e-05
8.60207e-05
1.58688e-09
1.77517e-09
8.60437e-05
4.59396e-09
2.56048e-09
8.60765e-05
8.11016e-09
8.05358e-09
8.61129e-05
9.36873e-09
1.03867e-08
8.61493e-05
7.34372e-09
1.12889e-08
8.61844e-05
6.95826e-09
6.29504e-09
8.62195e-05
5.35439e-09
4.85931e-09
8.62565e-05
6.91318e-09
6.20667e-09
8.62953e-05
1.10521e-08
8.94387e-09
8.63307e-05
1.24903e-08
1.04944e-08
8.63612e-05
8.78419e-09
1.35042e-08
8.63906e-05
9.25583e-09
1.45668e-08
8.64196e-05
1.14455e-08
1.36327e-08
8.64489e-05
1.34316e-08
1.28192e-08
8.64813e-05
1.43978e-08
1.61976e-08
8.65175e-05
1.48167e-08
1.34536e-08
8.65521e-05
1.15283e-08
1.07795e-08
8.65908e-05
1.19646e-08
7.8667e-09
8.66333e-05
9.69848e-09
8.14314e-09
8.66772e-05
1.02488e-08
8.32387e-09
8.67267e-05
9.55485e-09
1.27863e-08
8.67756e-05
1.13016e-08
8.89639e-09
8.6822e-05
1.02688e-08
1.04581e-08
8.68672e-05
1.03844e-08
9.52785e-09
8.69099e-05
5.05042e-09
7.92711e-09
8.69537e-05
6.61973e-09
7.96691e-09
8.6999e-05
5.91076e-09
1.10727e-08
8.70415e-05
7.75131e-09
8.44983e-09
8.7082e-05
8.05647e-09
1.13864e-08
8.71187e-05
8.50694e-09
1.05322e-08
8.71562e-05
6.71621e-09
1.26614e-08
8.71925e-05
6.38741e-09
1.18236e-08
8.7225e-05
6.38793e-09
1.33376e-08
8.72579e-05
9.34732e-09
1.14779e-08
8.7284e-05
1.0761e-08
1.14001e-08
8.73059e-05
1.28425e-08
1.17199e-08
8.73292e-05
1.72271e-08
1.43654e-08
8.73507e-05
2.42529e-08
1.30143e-08
8.73629e-05
4.52803e-08
1.19574e-08
8.73619e-05
7.62613e-08
1.3691e-08
8.73497e-05
1.32336e-07
7.72514e-09
8.73116e-05
2.46136e-07
7.26547e-09
8.71628e-05
4.34339e-07
6.31758e-10
8.69317e-05
7.67553e-07
2.01404e-09
8.64511e-05
1.28969e-06
-9.25165e-09
8.56139e-05
2.21437e-06
6.08541e-09
8.4242e-05
3.7585e-06
3.58783e-09
8.17703e-05
6.32951e-06
4.05211e-08
7.81302e-05
1.03227e-05
6.9959e-08
1.65126e-05
1.84501e-07
7.27958e-05
8.63072e-05
-2.00494e-09
1.62426e-09
8.63277e-05
-4.64818e-09
3.52427e-09
8.636e-05
-7.80705e-09
6.54793e-09
8.63974e-05
-7.43221e-09
9.11062e-09
8.64354e-05
-9.03761e-09
9.60136e-09
8.64702e-05
-1.11556e-08
7.0149e-09
8.65016e-05
-1.01903e-08
7.75656e-09
8.65353e-05
-7.7512e-09
9.90731e-09
8.6571e-05
-7.12374e-09
9.31779e-09
8.6606e-05
-8.00328e-09
8.35044e-09
8.66437e-05
-1.16584e-08
1.00878e-08
8.66823e-05
-1.17591e-08
1.18186e-08
8.67212e-05
-1.20565e-08
6.87376e-09
8.67643e-05
-1.36831e-08
5.13699e-09
8.68128e-05
-1.5175e-08
6.38061e-09
8.68622e-05
-1.72336e-08
4.52628e-09
8.69068e-05
-1.23672e-08
6.35407e-09
8.69495e-05
-5.40738e-09
8.7892e-09
8.69842e-05
-3.51534e-09
9.65825e-09
8.70177e-05
-3.98214e-09
1.11783e-08
8.70521e-05
-4.93425e-09
1.47735e-08
8.70828e-05
-2.73143e-09
1.50967e-08
8.71112e-05
-1.75492e-09
1.2792e-08
8.7142e-05
-4.80065e-09
1.41316e-08
8.7176e-05
-1.04107e-08
1.40896e-08
8.72127e-05
-9.03202e-09
1.50085e-08
8.72522e-05
-1.06236e-08
1.27887e-08
8.72941e-05
-1.29288e-08
9.33311e-09
8.73338e-05
-1.31259e-08
6.97655e-09
8.73749e-05
-1.25604e-08
6.50842e-09
8.74162e-05
-1.27679e-08
1.25518e-08
8.74544e-05
-1.00192e-08
1.29952e-08
8.74848e-05
-9.42511e-09
1.21714e-08
8.75188e-05
-7.58063e-09
1.00782e-08
8.75505e-05
8.15952e-10
9.9747e-09
8.75859e-05
-3.22647e-10
9.89484e-09
8.76223e-05
-1.92322e-09
1.16782e-08
8.76568e-05
1.1511e-08
8.86811e-09
8.76922e-05
3.03591e-08
3.17622e-09
8.77374e-05
6.26162e-08
4.18013e-09
8.77805e-05
1.12834e-07
-1.41669e-09
8.78242e-05
2.34223e-07
4.82201e-09
8.78732e-05
4.06821e-07
-7.22488e-09
8.78855e-05
7.91563e-07
2.62253e-08
8.79253e-05
1.24925e-06
-8.24921e-10
8.77898e-05
2.41322e-06
5.41869e-08
8.77363e-05
3.80458e-06
2.18831e-08
8.67762e-05
7.4606e-06
7.9976e-08
8.56972e-05
1.14975e-05
6.83933e-08
1.98554e-05
1.81792e-07
8.27545e-05
8.60222e-05
-6.70696e-09
2.00864e-09
8.60461e-05
-1.82882e-08
2.84992e-09
8.60777e-05
-2.31732e-08
7.06771e-09
8.61114e-05
-2.20545e-08
9.67816e-09
8.61469e-05
-2.56158e-08
9.78581e-09
8.61806e-05
-2.90768e-08
8.54965e-09
8.62162e-05
-2.97617e-08
6.3365e-09
8.62544e-05
-2.63664e-08
7.97662e-09
8.62947e-05
-2.40239e-08
7.55971e-09
8.6333e-05
-2.70371e-08
6.97122e-09
8.63688e-05
-3.27237e-08
7.85865e-09
8.64037e-05
-2.95224e-08
1.07854e-08
8.6435e-05
-2.36738e-08
1.04428e-08
8.6466e-05
-2.60457e-08
1.11367e-08
8.65e-05
-3.25965e-08
1.23242e-08
8.65352e-05
-3.625e-08
1.06172e-08
8.65713e-05
-3.03186e-08
9.88895e-09
8.66076e-05
-2.21869e-08
8.20676e-09
8.66474e-05
-2.69731e-08
7.47811e-09
8.6693e-05
-3.28098e-08
1.05237e-08
8.67437e-05
-3.29863e-08
1.43896e-08
8.67886e-05
-2.70262e-08
1.31525e-08
8.6827e-05
-2.49709e-08
9.32195e-09
8.68709e-05
-2.93076e-08
1.12742e-08
8.6918e-05
-3.07998e-08
1.20843e-08
8.69627e-05
-2.68942e-08
9.8997e-09
8.70034e-05
-2.79272e-08
8.2072e-09
8.70413e-05
-2.86938e-08
8.94059e-09
8.70787e-05
-2.65847e-08
9.56278e-09
8.71176e-05
-3.00302e-08
1.03873e-08
8.71567e-05
-3.17959e-08
1.17251e-08
8.71934e-05
-2.66433e-08
1.2816e-08
8.72273e-05
-2.37499e-08
1.20816e-08
8.72595e-05
-2.39614e-08
1.04268e-08
8.73096e-05
-2.47128e-08
6.54939e-09
8.73529e-05
-2.10626e-08
1.03484e-08
8.73802e-05
-1.79058e-08
1.99438e-08
8.7422e-05
-1.40225e-08
1.15569e-08
8.74829e-05
3.75567e-09
1.81035e-10
8.75447e-05
2.99992e-08
-1.86524e-09
8.76131e-05
6.53121e-08
2.96282e-09
8.77352e-05
1.34256e-07
-1.89261e-11
8.78962e-05
2.65057e-07
2.86249e-09
8.8224e-05
4.84607e-07
6.86528e-09
8.8615e-05
8.84155e-07
7.5624e-09
8.96233e-05
1.45699e-06
1.45401e-08
9.06964e-05
2.80634e-06
1.15703e-08
9.37129e-05
4.56281e-06
5.4216e-08
9.43881e-05
1.10194e-05
4.17953e-08
1.88105e-05
1.65101e-07
9.56962e-05
8.07943e-05
3.44199e-09
8.07843e-05
5.76784e-09
8.07741e-05
6.95759e-09
8.07658e-05
8.89975e-09
8.0756e-05
5.28045e-09
8.07393e-05
6.78052e-09
8.07197e-05
1.14002e-08
8.07057e-05
1.1009e-08
8.06989e-05
1.00095e-08
8.06904e-05
5.93165e-09
8.06693e-05
8.98437e-09
8.06537e-05
1.17277e-08
8.06549e-05
7.00388e-09
8.0653e-05
7.94147e-09
8.06376e-05
1.23026e-08
8.06192e-05
1.0273e-08
8.06171e-05
6.01603e-09
8.0635e-05
1.1044e-09
8.06392e-05
5.62183e-09
8.0626e-05
1.28041e-08
8.06155e-05
1.42016e-08
8.06152e-05
1.3585e-08
8.06206e-05
1.2751e-08
8.0611e-05
2.11201e-08
8.05976e-05
2.30582e-08
8.05997e-05
1.37927e-08
8.05996e-05
1.1627e-08
8.0596e-05
1.13895e-08
8.05937e-05
1.2682e-08
8.05802e-05
1.54834e-08
8.05651e-05
1.16158e-08
8.05614e-05
7.71082e-09
8.056e-05
9.87546e-09
8.05528e-05
1.20448e-08
8.05491e-05
9.51548e-09
8.05534e-05
8.01997e-09
8.05492e-05
1.42979e-08
8.05547e-05
1.39383e-08
8.05924e-05
2.2016e-09
8.06558e-05
1.50692e-09
8.07529e-05
3.16219e-09
8.09143e-05
6.45875e-09
8.12016e-05
5.56037e-09
8.17039e-05
6.89284e-09
8.26037e-05
5.43366e-09
8.40769e-05
1.68864e-08
8.69104e-05
-7.28657e-09
9.15513e-05
5.26002e-08
0.000102652
-6.84275e-08
2.77437e-07
0.000121848
8.09094e-05
5.67908e-09
-9.5876e-10
8.08992e-05
1.74556e-08
-3.66369e-09
8.08895e-05
2.45469e-08
-6.72516e-09
8.08862e-05
2.40342e-08
-9.74993e-09
8.08753e-05
2.54342e-08
-6.26572e-09
8.08659e-05
2.41584e-08
-6.55608e-09
8.08572e-05
2.32487e-08
-8.10654e-09
8.08444e-05
2.84867e-08
-8.48049e-09
8.08296e-05
3.09816e-08
-6.32151e-09
8.082e-05
3.08488e-08
-1.17549e-08
8.08261e-05
2.08007e-08
-1.58606e-08
8.08394e-05
1.77311e-08
-1.65883e-08
8.08363e-05
2.65614e-08
-1.63015e-08
8.08258e-05
3.01783e-08
-1.32255e-08
8.0817e-05
3.04069e-08
-9.05705e-09
8.08177e-05
2.92122e-08
-1.51099e-08
8.08126e-05
3.1296e-08
-1.6854e-08
8.07919e-05
3.7382e-08
-1.0895e-08
8.07769e-05
3.38663e-08
-1.02665e-08
8.07775e-05
2.91759e-08
-1.37816e-08
8.07728e-05
2.98959e-08
-7.44677e-09
8.07656e-05
3.19572e-08
-9.96745e-09
8.07559e-05
3.17681e-08
-1.04243e-08
8.07468e-05
3.20259e-08
-8.67664e-09
8.07414e-05
2.87893e-08
-1.12303e-08
8.07459e-05
2.61336e-08
-1.5029e-08
8.07552e-05
2.46608e-08
-1.68112e-08
8.07483e-05
2.99624e-08
-1.51797e-08
8.07328e-05
3.29785e-08
-1.38418e-08
8.07234e-05
2.99932e-08
-1.1843e-08
8.07245e-05
2.69324e-08
-9.44235e-09
8.07309e-05
2.46122e-08
-1.23159e-08
8.07238e-05
2.93968e-08
-9.78535e-09
8.07144e-05
3.09989e-08
-8.28572e-09
8.06993e-05
3.36084e-08
-1.07083e-08
8.06874e-05
3.3054e-08
-1.05717e-08
8.06702e-05
3.86635e-08
-6.08671e-09
8.06466e-05
4.39807e-08
-5.41896e-09
8.06181e-05
4.97017e-08
-4.59538e-09
8.05746e-05
7.29726e-08
-1.02341e-08
8.05004e-05
9.87755e-08
-9.55149e-09
8.03384e-05
1.93409e-07
-2.19918e-08
8.0092e-05
2.59599e-07
-1.24808e-08
7.96149e-05
5.22512e-07
-4.33542e-08
7.88514e-05
7.78606e-07
-2.28316e-08
7.75538e-05
1.40077e-06
-6.56585e-08
7.53171e-05
2.31696e-06
-3.70301e-08
7.17567e-05
3.7758e-06
-9.45365e-08
6.55499e-05
6.47166e-06
-1.28045e-07
1.07466e-05
-2.05403e-07
5.52712e-05
8.62765e-05
1.87309e-09
-2.14504e-09
8.62959e-05
4.36909e-09
-3.80507e-09
8.63278e-05
7.30226e-09
-6.52003e-09
8.63594e-05
8.48545e-09
-5.73811e-09
8.63957e-05
9.13997e-09
-8.64707e-09
8.64277e-05
7.56988e-09
-9.18655e-09
8.64585e-05
7.69742e-09
-1.04002e-08
8.64922e-05
9.33075e-09
-8.26921e-09
8.65298e-05
1.30245e-08
-1.06997e-08
8.65697e-05
1.12978e-08
-9.8273e-09
8.66072e-05
7.00377e-09
-1.02228e-08
8.66453e-05
4.33795e-09
-1.01966e-08
8.66885e-05
7.04247e-09
-9.98915e-09
8.67322e-05
7.71967e-09
-8.40071e-09
8.67802e-05
8.54958e-09
-1.00286e-08
8.68272e-05
7.15583e-09
-1.14226e-08
8.68725e-05
8.37439e-09
-1.15984e-08
8.6916e-05
1.01911e-08
-8.48727e-09
8.69568e-05
1.07663e-08
-9.53526e-09
8.69911e-05
1.13364e-08
-8.13577e-09
8.70278e-05
1.24988e-08
-6.54088e-09
8.7058e-05
1.42531e-08
-3.5475e-09
8.70874e-05
1.4303e-08
-1.46224e-09
8.71162e-05
1.36148e-08
-9.27876e-10
8.71456e-05
1.2273e-08
-4.94178e-09
8.71757e-05
1.01845e-08
-6.2088e-09
8.72105e-05
9.92321e-09
-8.94398e-09
8.72499e-05
1.01493e-08
-1.11371e-08
8.72885e-05
1.52167e-08
-9.41328e-09
8.73225e-05
1.23404e-08
-5.8318e-09
8.73566e-05
1.17991e-08
-6.37904e-09
8.73875e-05
9.53609e-09
-3.97321e-09
8.74217e-05
1.22195e-08
-3.68531e-09
8.74565e-05
1.20868e-08
-4.35573e-09
8.74955e-05
1.56196e-08
-9.65807e-09
8.75347e-05
1.24978e-08
-6.95999e-09
8.75708e-05
2.04492e-08
-3.52553e-09
8.76074e-05
2.44868e-08
-4.04001e-09
8.7639e-05
4.21884e-08
-1.21257e-08
8.7655e-05
7.58495e-08
-5.16389e-09
8.76505e-05
1.27042e-07
-1.61011e-08
8.76166e-05
2.48548e-07
-1.39141e-08
8.74738e-05
4.18102e-07
-1.50905e-08
8.72439e-05
7.6856e-07
-1.41657e-08
8.67484e-05
1.27025e-06
-5.31617e-09
8.59532e-05
2.23373e-06
-3.17047e-08
8.45066e-05
3.77386e-06
-6.77602e-09
8.20679e-05
6.33323e-06
-7.81469e-08
7.83831e-05
1.02671e-05
-4.06366e-08
1.6349e-05
-2.89322e-07
7.32545e-05
8.65858e-05
-1.58451e-09
-1.98045e-09
8.66024e-05
-4.45683e-09
-4.30652e-09
8.66305e-05
-7.26357e-09
-6.96243e-09
8.66636e-05
-7.38837e-09
-8.15295e-09
8.66993e-05
-8.08556e-09
-8.82042e-09
8.67319e-05
-9.75921e-09
-8.3324e-09
8.67642e-05
-7.32495e-09
-9.49376e-09
8.68002e-05
-7.76936e-09
-9.00637e-09
8.68388e-05
-7.10678e-09
-9.15446e-09
8.68802e-05
-1.02346e-08
-1.14765e-08
8.69204e-05
-1.22472e-08
-1.08192e-08
8.69584e-05
-1.17364e-08
-1.0169e-08
8.69969e-05
-1.19402e-08
-1.26013e-08
8.70333e-05
-1.14869e-08
-1.2041e-08
8.70704e-05
-1.02462e-08
-1.19652e-08
8.7105e-05
-1.06538e-08
-1.23055e-08
8.71388e-05
-1.03573e-08
-8.62081e-09
8.71726e-05
-7.83157e-09
-7.03129e-09
8.72075e-05
-5.31766e-09
-9.11862e-09
8.72404e-05
-3.33309e-09
-7.13094e-09
8.72743e-05
-2.58552e-09
-4.02882e-09
8.73074e-05
-2.18579e-09
-1.49567e-09
8.73379e-05
-1.72285e-09
-1.72666e-09
8.73734e-05
-3.07752e-09
-4.65753e-09
8.74094e-05
-4.66319e-09
-5.03826e-09
8.74498e-05
-8.55216e-09
-6.56301e-09
8.74934e-05
-9.68255e-09
-1.1246e-08
8.75393e-05
-1.02271e-08
-1.62254e-08
8.75876e-05
-9.93148e-09
-1.61942e-08
8.76324e-05
-1.07303e-08
-1.51405e-08
8.76814e-05
-1.18419e-08
-1.28343e-08
8.77313e-05
-1.21808e-08
-1.51449e-08
8.77819e-05
-1.17146e-08
-1.44987e-08
8.78299e-05
-6.71292e-09
-1.91416e-08
8.7879e-05
-7.10862e-09
-1.63978e-08
8.79263e-05
-6.6303e-09
-1.82828e-08
8.79683e-05
7.89818e-10
-1.06815e-08
8.8005e-05
1.24943e-08
-1.58599e-08
8.8034e-05
2.45217e-08
-8.1303e-09
8.80715e-05
6.21231e-08
-1.9579e-08
8.80988e-05
1.1451e-07
-1.61616e-08
8.81434e-05
2.42899e-07
-3.4207e-08
8.81703e-05
3.87266e-07
-3.21729e-09
8.82196e-05
7.95783e-07
-5.0363e-08
8.82624e-05
1.19812e-06
2.85689e-08
8.82215e-05
2.41718e-06
-8.83575e-08
8.81915e-05
3.78856e-06
3.71695e-08
8.73698e-05
7.39556e-06
-1.60656e-07
8.63055e-05
1.13937e-05
5.99857e-09
1.96502e-05
-3.53987e-07
8.35401e-05
8.6249e-05
-4.82414e-09
-2.29209e-09
8.627e-05
-1.79203e-08
-4.71889e-09
8.62998e-05
-2.35749e-08
-6.40494e-09
8.6332e-05
-2.29695e-08
-6.97667e-09
8.63672e-05
-2.70363e-08
-6.46787e-09
8.64016e-05
-2.89472e-08
-6.67751e-09
8.64361e-05
-2.56868e-08
-9.72365e-09
8.64708e-05
-2.3122e-08
-1.13741e-08
8.65063e-05
-2.39786e-08
-1.10954e-08
8.65469e-05
-3.09226e-08
-1.2903e-08
8.65863e-05
-3.32003e-08
-1.06371e-08
8.66226e-05
-2.71833e-08
-1.00247e-08
8.66587e-05
-2.68761e-08
-1.07401e-08
8.66957e-05
-2.6804e-08
-1.05855e-08
8.67323e-05
-2.5689e-08
-8.83928e-09
8.6772e-05
-3.04976e-08
-9.19771e-09
8.68111e-05
-3.12378e-08
-8.37476e-09
8.68503e-05
-3.06524e-08
-8.1528e-09
8.68965e-05
-3.15728e-08
-1.24551e-08
8.69443e-05
-3.00892e-08
-1.05083e-08
8.69936e-05
-2.83982e-08
-9.12194e-09
8.70384e-05
-2.79935e-08
-5.78595e-09
8.70785e-05
-2.84236e-08
-4.16414e-09
8.71145e-05
-2.37089e-08
-4.04215e-09
8.71484e-05
-2.10803e-08
-5.36855e-09
8.71804e-05
-2.74333e-08
-3.25049e-09
8.72121e-05
-3.05019e-08
-2.68502e-09
8.72481e-05
-3.11109e-08
-6.14304e-09
8.72851e-05
-2.79053e-08
-9.49098e-09
8.73242e-05
-3.12209e-08
-8.22081e-09
8.73699e-05
-3.83058e-08
-7.51893e-09
8.74145e-05
-3.65153e-08
-7.47789e-09
8.74537e-05
-3.0878e-08
-7.89641e-09
8.74952e-05
-2.75062e-08
-1.02999e-08
8.75361e-05
-3.19701e-08
-9.48368e-09
8.75724e-05
-2.74604e-08
-5.11777e-09
8.76267e-05
-2.81937e-08
-5.43102e-09
8.76756e-05
-1.14875e-08
-1.33586e-08
8.77138e-05
3.96152e-09
-1.73761e-08
8.77744e-05
1.81554e-08
-1.85297e-08
8.78507e-05
6.32599e-08
-2.20455e-08
8.79886e-05
1.32815e-07
-2.78432e-08
8.81503e-05
2.59968e-07
-3.15391e-08
8.85031e-05
4.77996e-07
-2.81863e-08
8.88709e-05
8.72022e-07
-3.41876e-08
8.99016e-05
1.44172e-06
-4.06973e-08
9.09494e-05
2.7958e-06
-4.34201e-08
9.40155e-05
4.47801e-06
-9.43754e-08
9.47313e-05
1.08698e-05
-1.50069e-07
1.85173e-05
-2.3862e-07
9.62679e-05
8.09119e-05
-4.19149e-09
8.09058e-05
-6.06471e-09
8.08912e-05
-2.04257e-09
8.08802e-05
-3.05335e-09
8.08651e-05
-6.61296e-09
8.08465e-05
-3.62196e-09
8.08358e-05
-3.54821e-09
8.08351e-05
-1.13969e-08
8.08319e-05
-1.07621e-08
8.08133e-05
-6.45626e-09
8.0797e-05
-7.84077e-09
8.07938e-05
-1.22985e-08
8.07871e-05
-1.3187e-08
8.07831e-05
-1.47999e-08
8.07873e-05
-1.76514e-08
8.07815e-05
-1.43828e-08
8.07698e-05
-1.35262e-08
8.07555e-05
-1.52845e-08
8.07443e-05
-1.47298e-08
8.07409e-05
-1.38454e-08
8.07383e-05
-1.15793e-08
8.07338e-05
-9.94226e-09
8.07285e-05
-1.03572e-08
8.07398e-05
-1.39158e-08
8.07544e-05
-1.26517e-08
8.07518e-05
-1.10123e-08
8.07447e-05
-1.18044e-08
8.07374e-05
-1.2418e-08
8.07395e-05
-1.73179e-08
8.07363e-05
-1.25208e-08
8.07189e-05
-9.25745e-09
8.07049e-05
-1.4861e-08
8.06983e-05
-1.44158e-08
8.06937e-05
-1.07713e-08
8.06811e-05
-9.85765e-09
8.06709e-05
-9.27731e-09
8.0671e-05
-1.4047e-08
8.06956e-05
-2.20913e-08
8.07201e-05
-1.83225e-08
8.07554e-05
-1.56242e-08
8.08436e-05
-2.18208e-08
8.10104e-05
-2.7542e-08
8.13005e-05
-2.45136e-08
8.18097e-05
-2.43048e-08
8.27168e-05
-2.96412e-08
8.42127e-05
-3.73103e-08
8.70392e-05
-3.79693e-08
9.16717e-05
-1.01968e-07
0.000102554
-8.13604e-08
-4.93695e-07
0.000121843
8.06846e-05
5.05579e-09
-6.18615e-09
8.0682e-05
1.75937e-08
-1.8689e-08
8.06669e-05
2.37877e-08
-1.53705e-08
8.06493e-05
2.71609e-08
-1.9314e-08
8.0636e-05
2.44974e-08
-1.7426e-08
8.06327e-05
2.34319e-08
-2.67597e-08
8.06207e-05
2.5438e-08
-2.15359e-08
8.06127e-05
2.56464e-08
-2.60623e-08
8.06022e-05
2.50837e-08
-2.09224e-08
8.05801e-05
3.18552e-08
-2.15081e-08
8.05655e-05
2.43665e-08
-2.56799e-08
8.05615e-05
2.43144e-08
-3.69142e-08
8.05425e-05
2.95189e-08
-2.67285e-08
8.05353e-05
2.90155e-08
-3.50741e-08
8.05387e-05
2.36708e-08
-3.61421e-08
8.05278e-05
3.28603e-08
-3.71037e-08
8.05071e-05
3.42513e-08
-3.03974e-08
8.05056e-05
3.13347e-08
-4.07047e-08
8.05031e-05
2.90668e-08
-3.68511e-08
8.05012e-05
3.15627e-08
-4.34558e-08
8.05006e-05
3.08981e-08
-3.76664e-08
8.04889e-05
3.89465e-08
-3.72234e-08
8.04681e-05
3.93772e-08
-2.90186e-08
8.04605e-05
3.75828e-08
-3.86591e-08
8.04495e-05
3.28982e-08
-3.31295e-08
8.04437e-05
3.24675e-08
-4.17459e-08
8.04368e-05
2.80059e-08
-3.78852e-08
8.04295e-05
3.16914e-08
-3.95449e-08
8.04129e-05
3.14612e-08
-2.87656e-08
8.04123e-05
2.67493e-08
-3.79692e-08
8.04144e-05
2.26152e-08
-3.40973e-08
8.04114e-05
2.7121e-08
-3.6514e-08
8.0401e-05
2.799e-08
-2.73603e-08
8.03943e-05
3.04886e-08
-3.2076e-08
8.03746e-05
3.2485e-08
-2.34629e-08
8.03612e-05
3.4727e-08
-3.19383e-08
8.03414e-05
4.02469e-08
-2.64777e-08
8.03373e-05
4.16469e-08
-4.29656e-08
8.0315e-05
4.94915e-08
-3.18483e-08
8.02704e-05
7.64508e-08
-4.2055e-08
8.01776e-05
1.05077e-07
-2.18323e-08
8.00217e-05
1.81666e-07
-4.77225e-08
7.97591e-05
2.6331e-07
-1.32461e-08
7.93007e-05
4.99374e-07
-8.42568e-08
7.85281e-05
7.5956e-07
-9.88506e-09
7.72251e-05
1.38557e-06
-1.48217e-07
7.48884e-05
2.30607e-06
-6.41171e-09
7.12862e-05
3.84464e-06
-3.36953e-07
6.50379e-05
6.42254e-06
-3.02291e-07
1.07973e-05
-7.6211e-07
5.47973e-05
8.59194e-05
1.6686e-09
-7.35625e-09
8.59433e-05
4.50332e-09
-1.46201e-08
8.59763e-05
6.7048e-09
-2.25358e-08
8.60141e-05
8.31619e-09
-2.46305e-08
8.6051e-05
7.45819e-09
-2.854e-08
8.6084e-05
7.67509e-09
-2.6451e-08
8.61173e-05
7.19071e-09
-2.54514e-08
8.61521e-05
6.29442e-09
-2.36451e-08
8.61902e-05
7.21544e-09
-3.09879e-08
8.62304e-05
8.87722e-09
-2.70663e-08
8.6265e-05
5.92386e-09
-2.63127e-08
8.63007e-05
7.79615e-09
-2.93558e-08
8.63419e-05
8.3576e-09
-3.01135e-08
8.63804e-05
9.59957e-09
-2.73981e-08
8.64185e-05
7.3178e-09
-3.18038e-08
8.64587e-05
1.2072e-08
-3.08635e-08
8.64992e-05
1.41621e-08
-3.20293e-08
8.65373e-05
1.38081e-08
-2.90618e-08
8.6577e-05
1.06398e-08
-3.07559e-08
8.66163e-05
1.34939e-08
-2.93654e-08
8.66591e-05
1.33253e-08
-3.17684e-08
8.6702e-05
1.80846e-08
-2.56031e-08
8.67399e-05
1.9533e-08
-1.94906e-08
8.67747e-05
1.83762e-08
-1.65972e-08
8.68102e-05
1.59514e-08
-2.34366e-08
8.68482e-05
1.4793e-08
-2.65346e-08
8.68894e-05
1.05681e-08
-3.2667e-08
8.69312e-05
1.08364e-08
-3.21113e-08
8.69727e-05
9.90626e-09
-2.93323e-08
8.70108e-05
7.68701e-09
-2.49401e-08
8.70503e-05
4.49012e-09
-2.77189e-08
8.70957e-05
4.33183e-09
-2.65456e-08
8.71363e-05
7.94029e-09
-2.42542e-08
8.7171e-05
1.19264e-08
-2.04776e-08
8.72012e-05
1.57492e-08
-2.31827e-08
8.72267e-05
2.07774e-08
-1.8465e-08
8.72694e-05
2.52726e-08
-3.12765e-08
8.73005e-05
3.58556e-08
-2.93772e-08
8.73032e-05
6.09638e-08
-2.62842e-08
8.73041e-05
9.51604e-08
-2.47917e-08
8.72784e-05
1.44977e-07
-3.02661e-08
8.72146e-05
2.51897e-07
-2.03446e-08
8.70512e-05
4.44244e-07
-3.26339e-08
8.68317e-05
7.04867e-07
-1.39937e-10
8.63412e-05
1.31007e-06
-6.52934e-08
8.5499e-05
2.17156e-06
2.4487e-08
8.40889e-05
3.80312e-06
-9.37176e-08
8.16012e-05
6.32487e-06
-7.07064e-08
7.79563e-05
1.03168e-05
-2.90033e-07
1.64591e-05
-5.37054e-07
7.25422e-05
8.62908e-05
-2.07965e-09