/*--------------------------------*- C++ -*----------------------------------*\
| =========                 |                                                 |
| \\      /  F ield         | OpenFOAM: The Open Source CFD Toolbox           |
|  \\    /   O peration     | Version:  2.1.x                                 |
|   \\  /    A nd           | Web:      www.OpenFOAM.org                      |
|    \\/     M anipulation  |                                                 |
\*---------------------------------------------------------------------------*/
FoamFile
{
    version     2.0;
    format      ascii;
    class       volVectorField;
    location    "0.4";
    object      U;
}
// * * * * * * * * * * * * * * * * * * * * * * * * * * * * * * * * * * * * * //

dimensions      [0 1 -1 0 0 0 0];

internalField   nonuniform List<vector> 
3875
(
(4.72929 0.000304706 0.000266378)
(4.72804 0.000349715 0.00077069)
(4.72525 0.0012055 0.000483387)
(4.72305 0.000424894 0.00117176)
(4.72101 0.00116649 0.000879317)
(4.71842 0.000983947 0.00154231)
(4.71533 0.00190727 0.00117361)
(4.71211 0.00128846 0.00173022)
(4.70933 0.001839 0.0010785)
(4.70669 0.00112952 0.00173882)
(4.70368 0.00186635 0.00158407)
(4.70028 0.0012382 0.00231295)
(4.69669 0.00236934 0.00151626)
(4.6928 0.00178813 0.00223384)
(4.68879 0.00266126 0.00166058)
(4.68487 0.00200077 0.00249754)
(4.68035 0.00338525 0.00206556)
(4.67559 0.00249179 0.00293839)
(4.67083 0.00363715 0.0024043)
(4.66598 0.002479 0.00325423)
(4.66127 0.00333459 0.00236471)
(4.65677 0.00233303 0.00320489)
(4.65196 0.00334625 0.00256106)
(4.64712 0.00216684 0.00343503)
(4.64205 0.00374368 0.00258583)
(4.63703 0.00241053 0.00333774)
(4.63235 0.00341379 0.00244708)
(4.62777 0.00214212 0.00315036)
(4.6232 0.00300948 0.00232288)
(4.61887 0.00165825 0.00302174)
(4.61456 0.0030488 0.00184434)
(4.61054 0.00134681 0.00290542)
(4.60652 0.00290305 0.00206601)
(4.6025 0.00122455 0.00277536)
(4.59872 0.00301646 0.00186403)
(4.59438 0.00141375 0.00271255)
(4.59077 0.00332519 0.00170266)
(4.58557 0.00201311 0.00303696)
(4.5796 0.00443965 0.00182718)
(4.57297 0.00302757 0.00280144)
(4.56587 0.00689035 0.00162852)
(4.54926 0.00646609 0.00346295)
(4.53768 0.0147823 0.000620394)
(4.4966 0.0143743 0.00550764)
(4.46243 0.0406915 -0.00115818)
(4.36575 0.040632 0.010624)
(4.25123 0.109255 -0.00286168)
(4.03711 0.122643 0.0175935)
(3.68856 0.277932 0.00711995)
(3.22529 0.329231 0.0431284)
(5.05559 0.000229714 0.000238168)
(5.05591 0.000693011 0.00049108)
(5.05589 0.00108719 0.00115913)
(5.05506 0.00100251 0.00153356)
(5.05257 0.000927857 0.00152566)
(5.05312 0.00112103 0.00144007)
(5.05205 0.00112558 0.00147489)
(5.05251 0.00101485 0.00160638)
(5.05187 0.00128212 0.00175869)
(5.0504 0.00143926 0.0017908)
(5.04946 0.00130112 0.00184654)
(5.04827 0.00131744 0.00186188)
(5.04754 0.00176118 0.00173055)
(5.04696 0.00191037 0.00167639)
(5.0473 0.00186159 0.00183497)
(5.04562 0.00209315 0.00185023)
(5.04517 0.00204051 0.00160053)
(5.04759 0.00162435 0.00171255)
(5.04654 0.00174268 0.0020138)
(5.04741 0.00192326 0.0022357)
(5.04608 0.00181332 0.00256356)
(5.04478 0.00195066 0.00265831)
(5.04513 0.00204885 0.0027416)
(5.04303 0.00195894 0.00279486)
(5.04256 0.00181899 0.00245553)
(5.04434 0.00158351 0.00250081)
(5.04292 0.00164199 0.00258433)
(5.0433 0.00192394 0.00246005)
(5.04299 0.0021041 0.00256906)
(5.04043 0.00211805 0.00244213)
(5.04131 0.00185034 0.00230574)
(5.04051 0.00178276 0.0023816)
(5.03902 0.00221958 0.00234535)
(5.03839 0.00232961 0.00229248)
(5.0361 0.00193502 0.0022092)
(5.03622 0.00230566 0.00189223)
(5.03578 0.00261978 0.00189463)
(5.03391 0.00309987 0.00162833)
(5.03393 0.00467807 0.00160965)
(5.03151 0.00563199 0.00130119)
(5.02814 0.011201 0.00202236)
(5.02313 0.0133967 0.000779365)
(5.01334 0.0297264 0.00327792)
(4.99859 0.038687 -0.00139975)
(4.97542 0.079777 0.00639536)
(4.92923 0.113904 -0.00437863)
(4.85877 0.218053 0.00821663)
(4.72229 0.337952 -0.00338002)
(4.5044 0.59447 0.0168825)
(4.17762 0.903483 0.0140279)
(5.05754 3.31278e-06 0.000219109)
(5.05826 -3.15488e-07 0.000718309)
(5.05756 3.59023e-05 0.00114559)
(5.05672 7.96398e-07 0.00150464)
(5.05534 -0.000104997 0.00166784)
(5.05371 -0.00019868 0.00149709)
(5.0547 -8.13783e-05 0.00155927)
(5.05279 -0.000236341 0.00174594)
(5.05146 -0.000100899 0.00165167)
(5.05229 0.000156483 0.00150852)
(5.05226 0.000167521 0.00168483)
(5.05075 -4.22849e-05 0.00180204)
(5.05054 -6.53941e-05 0.00152395)
(5.05226 -0.000352113 0.00148944)
(5.05214 -0.000135023 0.00170136)
(5.05254 7.08107e-05 0.00165049)
(5.05427 -0.000254835 0.00194621)
(5.05295 -0.000182171 0.0022434)
(5.05161 0.000203453 0.0022628)
(5.05187 0.00035812 0.00222479)
(5.05071 0.000366509 0.00237375)
(5.05031 0.000553119 0.00228982)
(5.05016 0.00117657 0.00218464)
(5.04949 0.00063384 0.00223745)
(5.04973 -0.000233771 0.00245026)
(5.04885 -0.000184326 0.00262248)
(5.04749 -1.88158e-05 0.00253999)
(5.04695 -0.000189624 0.00235597)
(5.04705 4.22998e-05 0.0021134)
(5.04883 -1.37582e-05 0.00216459)
(5.04833 4.72792e-07 0.00236657)
(5.04746 0.000243157 0.00233214)
(5.04722 0.000318856 0.00211854)
(5.04923 0.000711074 0.00205227)
(5.04815 0.000881888 0.00230922)
(5.0472 0.000450787 0.00232568)
(5.04802 0.00129664 0.00237584)
(5.04625 0.00159348 0.00234047)
(5.04768 0.00361078 0.00225614)
(5.04604 0.00532071 0.00244817)
(5.04702 0.0111952 0.00246196)
(5.048 0.0149815 0.00235949)
(5.04578 0.0319917 0.00229524)
(5.05247 0.0473179 0.00290471)
(5.04127 0.10047 0.00208027)
(5.05929 0.151468 0.00489423)
(5.01281 0.292938 0.0015404)
(5.03419 0.472983 0.0104359)
(4.89569 0.799344 0.00536947)
(4.78701 1.3797 0.0283786)
(5.04264 -0.000238709 0.000245268)
(5.04302 -0.000744058 0.000464207)
(5.04312 -0.00106701 0.00114306)
(5.04222 -0.00100692 0.00148391)
(5.04029 -0.00101331 0.00152316)
(5.03939 -0.00127761 0.00139591)
(5.03927 -0.00132029 0.00138409)
(5.03905 -0.00109579 0.00169717)
(5.03811 -0.00130379 0.00190916)
(5.03556 -0.00146785 0.00176442)
(5.03664 -0.00136943 0.00158828)
(5.03629 -0.0014408 0.00180052)
(5.03477 -0.00185877 0.00200513)
(5.03391 -0.00205625 0.00203366)
(5.03247 -0.00201255 0.00197107)
(5.03233 -0.00209795 0.00189987)
(5.03181 -0.00199679 0.00194269)
(5.03156 -0.00168777 0.00201316)
(5.03138 -0.00169904 0.00190069)
(5.03314 -0.00164655 0.00206345)
(5.03289 -0.00153638 0.00237924)
(5.03107 -0.00150444 0.0024483)
(5.03238 -0.00144825 0.00222508)
(5.03417 -0.00155071 0.00254778)
(5.03232 -0.00159518 0.00298229)
(5.03082 -0.00153975 0.00299853)
(5.03035 -0.00150688 0.00287447)
(5.03024 -0.00178886 0.00289376)
(5.02923 -0.00200857 0.00289612)
(5.02812 -0.0020361 0.00268776)
(5.02738 -0.00178888 0.00252169)
(5.02686 -0.00171499 0.00247383)
(5.02572 -0.001907 0.00238362)
(5.02494 -0.00162659 0.00215304)
(5.02553 -0.00116135 0.0021858)
(5.02531 -0.000869881 0.00227915)
(5.02442 -0.000445791 0.00227415)
(5.02424 1.66145e-05 0.00220978)
(5.02516 0.00116397 0.00232212)
(5.02534 0.00283984 0.0021734)
(5.02809 0.00521045 0.00177959)
(5.03401 0.0128828 0.00182034)
(5.04061 0.0183883 0.00138621)
(5.05493 0.0413296 0.00163259)
(5.07537 0.0612139 0.00153729)
(5.12288 0.139629 0.00267357)
(5.18104 0.198156 0.00365512)
(5.29989 0.456452 0.00682161)
(5.47538 0.669288 0.0113616)
(5.38998 1.60139 0.015966)
(4.73193 -0.000288718 0.000253752)
(4.73083 -0.000683006 0.000484623)
(4.72786 -0.000870046 0.000843463)
(4.72573 -0.000792505 0.00111799)
(4.72323 -0.000864273 0.00118029)
(4.72101 -0.00131861 0.00103979)
(4.71788 -0.00147716 0.00116488)
(4.71514 -0.00137189 0.00139129)
(4.71201 -0.00119344 0.00166471)
(4.70932 -0.0014993 0.00158515)
(4.70591 -0.00182307 0.00134908)
(4.70304 -0.00175047 0.00165698)
(4.6992 -0.00191037 0.00208548)
(4.69561 -0.00202581 0.00224185)
(4.69126 -0.0023293 0.00216773)
(4.68757 -0.00262063 0.00203461)
(4.68293 -0.00272138 0.00260484)
(4.67846 -0.00268263 0.00318024)
(4.67313 -0.00327809 0.00308023)
(4.66845 -0.00325704 0.00275766)
(4.66379 -0.00273488 0.00284863)
(4.65948 -0.00281228 0.00307058)
(4.65418 -0.00329444 0.00331184)
(4.64889 -0.00296066 0.00317885)
(4.6442 -0.00256885 0.00294493)
(4.6398 -0.00249679 0.00311267)
(4.63502 -0.00267659 0.00278233)
(4.63051 -0.00253389 0.00254817)
(4.62587 -0.00261606 0.00257236)
(4.62154 -0.00242334 0.00241475)
(4.61739 -0.00257995 0.0023086)
(4.6136 -0.00194806 0.00250767)
(4.60979 -0.00245092 0.00242127)
(4.60571 -0.00220025 0.00213599)
(4.60205 -0.00253557 0.0023584)
(4.598 -0.00179066 0.00256464)
(4.59505 -0.00213502 0.00217866)
(4.59209 -0.00202814 0.00245094)
(4.5891 -0.0019348 0.00288944)
(4.58719 -0.00074326 0.00297131)
(4.58934 0.000722422 0.00307937)
(4.58851 0.0017484 0.00295318)
(4.6065 0.0105804 0.00266527)
(4.61668 0.0110087 0.00248768)
(4.67681 0.0399144 0.00210684)
(4.72575 0.0364259 0.00255946)
(4.90768 0.133841 0.0016034)
(5.11312 0.0978035 0.00639301)
(5.58951 0.51003 0.00112524)
(6.55834 0.365155 0.0306714)
(5.05495 0.00023475 0.000198614)
(5.05564 0.000791142 0.000738935)
(5.055 0.00115534 0.000969098)
(5.05345 0.00128136 0.00114295)
(5.05256 0.00137146 0.0011532)
(5.05166 0.0014264 0.00125027)
(5.05129 0.00144558 0.0013369)
(5.0513 0.00175048 0.00119051)
(5.0503 0.0019674 0.00119748)
(5.04852 0.00192191 0.00125577)
(5.04804 0.00171109 0.00157888)
(5.04817 0.00166308 0.00177664)
(5.04719 0.00172216 0.00160448)
(5.04717 0.00181241 0.00146057)
(5.04694 0.00193918 0.00159535)
(5.04485 0.0020959 0.00172177)
(5.04448 0.00225338 0.00157503)
(5.04373 0.00244856 0.0012723)
(5.04327 0.00248438 0.00146745)
(5.0432 0.00267612 0.00180705)
(5.04222 0.00286099 0.00174766)
(5.04063 0.00284784 0.00162225)
(5.0403 0.00272306 0.00163077)
(5.03969 0.00264069 0.00176028)
(5.03941 0.00256263 0.00174749)
(5.03937 0.0025662 0.00180385)
(5.03831 0.00253674 0.00199068)
(5.03816 0.00252542 0.00159731)
(5.03771 0.00229199 0.00140616)
(5.03911 0.00231373 0.0014706)
(5.03814 0.00242146 0.00172214)
(5.03616 0.00224975 0.001803)
(5.03706 0.00207494 0.00149144)
(5.03591 0.00215879 0.00137764)
(5.0349 0.0018427 0.00131603)
(5.03689 0.00190169 0.00123793)
(5.03411 0.00199471 0.00142582)
(5.03359 0.00243586 0.00157984)
(5.03281 0.00261124 0.00147843)
(5.02939 0.00350936 0.00155375)
(5.02507 0.00371406 0.00135221)
(5.01585 0.00835536 0.00160586)
(5.00646 0.00685401 0.00066416)
(4.98138 0.0215746 0.00205667)
(4.94773 0.0200923 0.000437484)
(4.88704 0.0516925 0.00431561)
(4.7716 0.0723986 0.0035376)
(4.61028 0.131815 0.0116175)
(4.30853 0.213113 0.0183417)
(3.95968 0.322796 0.037373)
(5.37529 0.000262988 0.000290106)
(5.37716 0.000703155 0.000443227)
(5.3789 0.00123992 0.00120519)
(5.38084 0.00155537 0.00153139)
(5.38317 0.00136229 0.00175635)
(5.38543 0.00139883 0.00116895)
(5.38763 0.00115031 0.00112803)
(5.38987 0.00130902 0.00111107)
(5.39217 0.00155097 0.00147187)
(5.39472 0.00167818 0.00149661)
(5.39663 0.00115404 0.0017632)
(5.39854 0.00129547 0.00170075)
(5.40028 0.00147896 0.00165566)
(5.40211 0.00182864 0.00152015)
(5.40408 0.00190155 0.00191659)
(5.40608 0.00214164 0.00162997)
(5.40853 0.0016956 0.00143411)
(5.41053 0.00171221 0.0011281)
(5.41331 0.0013639 0.00128574)
(5.41587 0.00138964 0.00113547)
(5.41881 0.00133405 0.00163962)
(5.42192 0.0015334 0.00115133)
(5.42503 0.00128244 0.00136569)
(5.42779 0.00138538 0.00110492)
(5.43057 0.000995615 0.000933059)
(5.43317 0.00124818 0.000871377)
(5.43606 0.00115617 0.00137557)
(5.43883 0.00138251 0.00100501)
(5.44135 0.00116253 0.00146855)
(5.44385 0.00127778 0.00105597)
(5.44607 0.0011606 0.00128529)
(5.44841 0.00109113 0.00110934)
(5.45067 0.000792638 0.00138681)
(5.45248 0.00116376 0.00105243)
(5.45464 0.000875717 0.0013735)
(5.4558 0.00126296 0.00106262)
(5.45756 0.00154223 0.00146692)
(5.4582 0.00175393 0.00126454)
(5.46049 0.00310423 0.0013587)
(5.45986 0.00461337 0.00123511)
(5.45942 0.00757799 0.00129913)
(5.45806 0.0143959 0.00144986)
(5.45488 0.0223145 0.00126692)
(5.43598 0.0414424 0.00126747)
(5.42648 0.0678697 0.000169201)
(5.37162 0.11195 0.00105657)
(5.32229 0.200327 -0.000925615)
(5.20147 0.308682 0.00631274)
(5.02756 0.545213 0.0065958)
(4.7528 0.826363 0.031077)
(5.39327 -1.3237e-05 0.00025487)
(5.3949 -1.87489e-05 0.000559027)
(5.39677 2.66002e-05 0.00111293)
(5.39848 1.56881e-05 0.00154192)
(5.40108 -5.37863e-05 0.00166801)
(5.40323 -0.000196199 0.00126419)
(5.40557 -0.000157916 0.00129425)
(5.40719 -6.33083e-05 0.00157842)
(5.40964 0.000149364 0.00154526)
(5.41176 0.000135827 0.00137703)
(5.41399 2.62066e-05 0.00155932)
(5.41652 -1.58912e-05 0.00167106)
(5.41873 1.35589e-05 0.00117125)
(5.42141 -0.00011003 0.00100091)
(5.42415 -4.4761e-05 0.00124396)
(5.42744 -0.000133758 0.00105533)
(5.43028 -6.59788e-05 0.00129131)
(5.43311 8.54278e-05 0.00167389)
(5.43557 0.000138366 0.00144588)
(5.43747 0.000194361 0.00140413)
(5.43974 0.000156868 0.00167556)
(5.44169 0.000198244 0.00155275)
(5.44362 0.000165148 0.00133368)
(5.44538 5.88344e-05 0.00140791)
(5.44733 -0.000259133 0.00150311)
(5.44967 -0.000228853 0.00168249)
(5.45189 -0.000299343 0.00176424)
(5.45469 -0.000325111 0.00148591)
(5.457 -0.000279403 0.00119509)
(5.45975 -0.000272106 0.00121127)
(5.46214 -0.000312815 0.00178766)
(5.46487 -0.00029785 0.0019636)
(5.4669 -0.000114137 0.00138626)
(5.46878 -4.50521e-05 0.00147435)
(5.47093 0.000308674 0.00142294)
(5.47289 0.000208518 0.00173939)
(5.47547 0.000348692 0.00125495)
(5.47721 0.00105002 0.00147352)
(5.48001 0.00204389 0.000389869)
(5.48124 0.00374455 0.0015861)
(5.48609 0.00763698 -9.12912e-05)
(5.48657 0.0128683 0.00208568)
(5.49162 0.0277597 -0.00138202)
(5.49189 0.0436597 0.00476295)
(5.49478 0.0811864 -0.00311489)
(5.49079 0.134114 0.00832614)
(5.48755 0.236586 -0.0024115)
(5.45908 0.418966 0.0138622)
(5.4102 0.709898 0.00384899)
(5.26533 1.19206 0.0296747)
(5.37535 -0.00032285 0.00027817)
(5.37729 -0.000708453 0.000525897)
(5.37907 -0.00121963 0.00107929)
(5.38081 -0.00123152 0.00156106)
(5.38307 -0.00142847 0.00157203)
(5.38517 -0.00160302 0.00132859)
(5.38735 -0.00159993 0.00120882)
(5.38975 -0.00132693 0.00149498)
(5.39203 -0.00126639 0.00161351)
(5.39482 -0.0013483 0.00141392)
(5.39678 -0.00176544 0.00123162)
(5.39932 -0.00165307 0.00149604)
(5.40115 -0.00148068 0.00147892)
(5.40324 -0.00153918 0.00150421)
(5.40505 -0.00188517 0.00148815)
(5.4074 -0.00217952 0.00129623)
(5.4095 -0.00162626 0.00135567)
(5.41189 -0.000898458 0.00125188)
(5.41406 -0.00086188 0.00108112)
(5.41692 -0.00109256 0.00129555)
(5.4197 -0.00109083 0.00192398)
(5.42319 -0.000722406 0.00163409)
(5.42538 -0.000518067 0.000995822)
(5.42809 -0.000845407 0.00122258)
(5.4308 -0.00117522 0.0015697)
(5.43385 -0.00101433 0.00134881)
(5.43646 -0.00116727 0.00103429)
(5.43902 -0.00135286 0.00105159)
(5.44114 -0.00128074 0.00124845)
(5.44374 -0.00132199 0.00126782)
(5.44597 -0.00135559 0.00145676)
(5.44855 -0.000996314 0.00160481)
(5.45065 -0.000978267 0.00151906)
(5.45296 -0.000897968 0.00126724)
(5.45406 -0.000609678 0.00139745)
(5.45966 -0.00047075 0.00157021)
(5.45983 -0.000561716 0.00178742)
(5.46279 0.000186427 0.00137168)
(5.46465 0.000980266 0.00133227)
(5.47163 0.00354582 0.000977563)
(5.47159 0.00496443 0.00102171)
(5.48186 0.0133292 0.000899111)
(5.48571 0.0184762 0.00102443)
(5.50736 0.0463771 0.00133389)
(5.52223 0.0606215 0.00119651)
(5.57261 0.141011 0.00303576)
(5.62911 0.189965 0.00273137)
(5.73758 0.434599 0.00823932)
(5.92147 0.627921 0.0086994)
(5.85603 1.45334 0.0231709)
(5.04962 -0.000266651 0.000248564)
(5.04954 -0.000780134 0.000643091)
(5.04871 -0.000993565 0.000967846)
(5.04809 -0.00111233 0.00127528)
(5.04775 -0.00139176 0.00110415)
(5.04669 -0.00160463 0.0010472)
(5.04567 -0.00169824 0.00130447)
(5.04435 -0.00166665 0.0013784)
(5.04375 -0.00161459 0.00148477)
(5.04365 -0.00186903 0.00113663)
(5.04281 -0.00204642 0.00117486)
(5.04077 -0.00188778 0.00143974)
(5.04072 -0.00161177 0.00148885)
(5.04127 -0.00178206 0.00152963)
(5.04049 -0.00205849 0.00158427)
(5.03921 -0.00210294 0.00145072)
(5.03807 -0.00204953 0.00141975)
(5.03883 -0.00186575 0.0013697)
(5.04077 -0.00222398 0.00133715)
(5.03929 -0.00257801 0.00154523)
(5.03883 -0.00266857 0.00173579)
(5.03795 -0.00251755 0.00171582)
(5.03889 -0.00247427 0.00175015)
(5.03899 -0.00260209 0.00208289)
(5.03737 -0.00255077 0.00220323)
(5.03708 -0.00237024 0.00196783)
(5.03801 -0.00230865 0.00185429)
(5.03694 -0.00229615 0.00178774)
(5.0374 -0.00222895 0.00187783)
(5.03708 -0.00238232 0.00173177)
(5.03548 -0.00249156 0.00139825)
(5.035 -0.002317 0.00129296)
(5.03502 -0.00217342 0.00151187)
(5.03529 -0.00215485 0.00144254)
(5.03366 -0.00211227 0.00131362)
(5.03486 -0.00182202 0.0013557)
(5.0348 -0.00164703 0.00149578)
(5.03378 -0.00193863 0.00168065)
(5.03581 -0.000443258 0.00127896)
(5.03873 -0.000465723 0.0012742)
(5.04508 0.00214916 0.00131257)
(5.04992 0.00196522 0.00147331)
(5.06948 0.0100938 0.00114049)
(5.08395 0.010162 0.00108392)
(5.14485 0.0363311 0.000685056)
(5.1921 0.0318214 0.00196104)
(5.36707 0.120058 -0.000236652)
(5.5545 0.081643 0.00795103)
(6.02155 0.479596 -0.00389705)
(6.84663 0.268434 0.0426706)
(5.05663 0.000218003 -6.59167e-06)
(5.0569 0.000693701 -3.61498e-06)
(5.05595 0.00114532 6.63337e-05)
(5.05523 0.00131134 4.24048e-05)
(5.05559 0.00146831 5.72876e-05)
(5.05378 0.00146134 6.57157e-05)
(5.05437 0.00149554 -5.59671e-05)
(5.05301 0.00173384 1.55917e-05)
(5.0524 0.00186664 0.000170292)
(5.05143 0.00189317 -5.98621e-05)
(5.05075 0.00153605 -0.000182182)
(5.05242 0.00140246 -6.88991e-05)
(5.05297 0.00178932 -0.00044615)
(5.05149 0.00200161 -0.000197463)
(5.05159 0.00207134 0.000168882)
(5.05053 0.00212322 2.54067e-05)
(5.05163 0.002281 -0.000240137)
(5.05028 0.002566 -6.82998e-05)
(5.04845 0.00259682 1.04569e-05)
(5.04851 0.00242246 0.000115725)
(5.04886 0.00250542 0.000440121)
(5.04778 0.00256609 0.000172154)
(5.04794 0.00240648 2.03744e-05)
(5.0465 0.0023217 0.000144553)
(5.04683 0.00218174 -6.44236e-05)
(5.04577 0.00203847 2.00455e-05)
(5.04726 0.00190491 1.82032e-05)
(5.04757 0.00217986 -0.000337799)
(5.04587 0.00226965 -0.0003381)
(5.04567 0.00219028 1.05477e-05)
(5.04467 0.00206306 0.000451556)
(5.04585 0.0021321 0.000341338)
(5.04565 0.00233319 0.000193633)
(5.04488 0.00243911 0.000266029)
(5.04417 0.00251812 -4.1014e-05)
(5.04327 0.00266356 5.15206e-05)
(5.0426 0.00283913 0.000416934)
(5.04107 0.00313918 0.000541969)
(5.03939 0.00344401 0.000628527)
(5.0375 0.00437092 0.000442578)
(5.03363 0.00415214 0.000345377)
(5.02596 0.00874851 -0.000260254)
(5.01417 0.00811451 -0.000277883)
(4.9904 0.0212108 -0.00143982)
(4.95369 0.0221298 -0.000941894)
(4.89229 0.0512236 -0.00104305)
(4.78217 0.0711172 0.000294064)
(4.62316 0.129288 0.00116176)
(4.32565 0.210501 0.000393025)
(3.97577 0.319093 0.00216934)
(5.39129 0.000298171 -1.11622e-05)
(5.39307 0.000696357 -2.30912e-05)
(5.39464 0.00118307 5.60933e-05)
(5.39651 0.00133079 0.000161784)
(5.39832 0.0014203 7.46298e-05)
(5.40103 0.00132301 -6.89637e-05)
(5.40247 0.00119121 -0.000167937)
(5.40485 0.00151166 -8.46532e-05)
(5.4067 0.00173799 -4.43669e-05)
(5.40949 0.0017301 1.78888e-05)
(5.41172 0.00114451 0.000109797)
(5.41412 0.000899692 0.000212807)
(5.41667 0.00129064 0.00021608)
(5.41933 0.00144298 0.000219318)
(5.42222 0.00147339 0.000274386)
(5.42523 0.00130572 0.000136559)
(5.42824 0.001387 -6.10455e-07)
(5.43081 0.00168113 -5.52638e-06)
(5.43367 0.00142941 -2.47393e-05)
(5.43588 0.00123102 7.19634e-05)
(5.4381 0.0012536 0.00030748)
(5.44037 0.00135622 0.000249177)
(5.44185 0.0013897 0.000218863)
(5.444 0.00151302 0.00021932)
(5.4456 0.001387 0.000127426)
(5.44752 0.00128506 0.000126594)
(5.4495 0.0013318 0.000137029)
(5.45184 0.00141297 0.000101755)
(5.45442 0.00173898 0.0001744)
(5.45654 0.00145914 0.000305515)
(5.45882 0.00134794 0.000281984)
(5.46073 0.000992719 0.000404839)
(5.46277 0.00127928 0.000309013)
(5.46491 0.00124216 0.000299137)
(5.46711 0.00158207 -1.07039e-05)
(5.46972 0.00134186 0.000153715)
(5.47215 0.00182958 0.000271304)
(5.47396 0.00200694 0.000347384)
(5.47683 0.00265757 -9.16503e-05)
(5.47776 0.0044439 0.000417584)
(5.47839 0.00720715 -0.000324739)
(5.47669 0.0138635 -0.000171652)
(5.47422 0.0226497 -0.000893843)
(5.45594 0.0412492 -0.000477198)
(5.4451 0.0696215 -0.00116954)
(5.39172 0.113101 -0.000426071)
(5.34187 0.201664 -0.000607357)
(5.21832 0.309281 -0.000741359)
(5.0436 0.547936 0.000714292)
(4.77504 0.816669 -0.00359988)
(5.4107 1.70921e-05 -1.46319e-05)
(5.41226 8.50597e-07 -3.55989e-05)
(5.41381 1.64229e-05 -1.84754e-05)
(5.41521 2.33091e-05 -2.91931e-06)
(5.4176 2.32321e-05 -2.58595e-05)
(5.41972 -5.94232e-05 -9.76698e-05)
(5.42178 7.05607e-05 -8.6554e-05)
(5.42374 2.67625e-05 -5.54983e-05)
(5.42628 0.000183044 -0.000130677)
(5.4286 -9.78247e-06 -0.00017212)
(5.4314 -0.000125256 -6.62854e-05)
(5.4336 -0.000223506 2.64112e-05)
(5.43626 -0.000166174 -0.000128958)
(5.43834 -0.000185809 -0.000128395)
(5.44083 -0.000172665 -0.000173548)
(5.44295 -0.000145316 -0.000332026)
(5.44518 -9.90152e-05 -0.000260237)
(5.44722 1.45113e-05 -0.000210011)
(5.44929 0.000233282 -3.53246e-05)
(5.45165 0.000399099 0.000176462)
(5.45342 0.000440888 0.000468451)
(5.45583 0.000552019 0.000578671)
(5.45759 0.000594548 0.000533524)
(5.45967 0.000396677 0.000522427)
(5.46201 0.000222088 0.000422333)
(5.4641 2.54179e-06 0.000332402)
(5.46719 -4.09309e-05 2.74158e-05)
(5.46948 1.12791e-05 -0.000253318)
(5.47288 0.000206602 -0.000347195)
(5.4756 0.000169557 -0.000372426)
(5.4785 0.000152862 -8.32187e-05)
(5.48165 0.000187476 -0.00027064)
(5.48473 0.000199477 2.95764e-05)
(5.48801 0.000307733 -0.000321597)
(5.49074 0.000387618 -6.13601e-06)
(5.49406 0.000219222 -0.00047499)
(5.49673 0.000752248 0.000228238)
(5.49932 0.001068 -0.00027724)
(5.50133 0.00219346 0.000237507)
(5.50299 0.00404215 -0.000665774)
(5.50562 0.00755367 -0.000351188)
(5.5073 0.0138353 -0.00134026)
(5.51006 0.0250033 0.000311699)
(5.51161 0.0433584 -0.00101893)
(5.51527 0.0756065 0.00236578)
(5.51443 0.134516 -0.000922822)
(5.51545 0.237037 0.00361059)
(5.49142 0.416077 -0.00246393)
(5.44847 0.704003 0.00417966)
(5.30687 1.18365 -0.00604105)
(5.38954 -0.000275223 -6.93726e-06)
(5.39146 -0.000671239 -6.26773e-05)
(5.39295 -0.00118464 4.22461e-05)
(5.39472 -0.00120725 7.17057e-05)
(5.3967 -0.00140843 0.000109355)
(5.39911 -0.00157536 8.58791e-05)
(5.40107 -0.00133935 -0.000139823)
(5.40346 -0.00126697 -0.000226422)
(5.40539 -0.00127402 -0.000288933)
(5.40795 -0.00161264 -0.000300446)
(5.41038 -0.00178984 -0.000128248)
(5.41282 -0.00146874 -1.68652e-05)
(5.41506 -0.00149197 2.73375e-05)
(5.4173 -0.00140482 0.000106354)
(5.41968 -0.00123905 0.000255305)
(5.42182 -0.00144617 0.000230011)
(5.4247 -0.00142624 0.000167832)
(5.42667 -0.00128053 6.95036e-05)
(5.42954 -0.00121774 -4.42621e-05)
(5.43257 -0.0010928 0.00014629)
(5.4355 -0.000969849 0.00021309)
(5.43867 -0.000972144 0.000281731)
(5.44107 -0.000996204 0.000227277)
(5.44383 -0.000809685 0.000306616)
(5.44552 -0.0007439 0.000207912)
(5.44799 -0.00114727 0.000165268)
(5.4495 -0.00140499 0.000123511)
(5.45202 -0.00147907 2.42531e-05)
(5.45402 -0.0013822 -6.9657e-05)
(5.45664 -0.00152473 1.33758e-05)
(5.4589 -0.00179002 5.99281e-06)
(5.4623 -0.00179281 1.87175e-05)
(5.46454 -0.0015401 2.51179e-05)
(5.46716 -0.00115106 -6.26342e-05)
(5.46974 -0.00146418 -0.000214133)
(5.47239 -0.0012305 -4.75758e-05)
(5.47393 -0.00115949 0.00025754)
(5.4797 -5.84525e-06 -0.000169846)
(5.47994 0.000465301 -0.000763086)
(5.48498 0.00288264 -0.000928081)
(5.4867 0.00501221 -0.000826665)
(5.49697 0.0133137 -0.00110907)
(5.50158 0.0186484 -0.00112903)
(5.52426 0.0468746 -0.000809959)
(5.53898 0.0603859 -0.000771379)
(5.58932 0.140965 -0.000734424)
(5.64569 0.188396 -0.000830287)
(5.75451 0.428987 -0.00101489)
(5.93967 0.620298 -0.00333809)
(5.88494 1.43317 -0.00163401)
(5.0562 -0.000187525 -2.62868e-05)
(5.05778 -0.000723504 -1.41866e-05)
(5.05596 -0.00107406 0.000203341)
(5.05527 -0.00130078 0.000141646)
(5.05505 -0.00153521 -5.76123e-05)
(5.05305 -0.00158781 0.00025746)
(5.05263 -0.00155657 0.000421649)
(5.05179 -0.00151421 7.53418e-06)
(5.05246 -0.00167458 -8.81764e-05)
(5.05187 -0.00193764 4.041e-05)
(5.04985 -0.00198302 2.82932e-06)
(5.04933 -0.00186512 -6.24487e-05)
(5.05008 -0.00186388 -0.000283118)
(5.04839 -0.00189989 -0.000326381)
(5.04939 -0.00190943 -0.000235778)
(5.04923 -0.00210037 -0.000121398)
(5.04833 -0.00221402 -0.000325078)
(5.04789 -0.00228747 -0.000580224)
(5.04657 -0.00238187 -0.000345873)
(5.04644 -0.00242323 -5.53691e-05)
(5.04617 -0.00241606 8.62446e-05)
(5.04609 -0.00239243 0.000189718)
(5.04572 -0.00239955 0.00016761)
(5.04518 -0.00226942 0.000259234)
(5.0473 -0.00208166 0.000440167)
(5.04719 -0.0021914 0.000109348)
(5.04673 -0.00220672 -4.99576e-05)
(5.04636 -0.00227814 -0.000164867)
(5.04552 -0.00229522 -0.000345663)
(5.04713 -0.00246107 1.88404e-05)
(5.04512 -0.00285015 2.91815e-05)
(5.04465 -0.00272124 -0.000323353)
(5.04324 -0.0024892 -0.00022981)
(5.04418 -0.00233785 5.54829e-05)
(5.04265 -0.00238378 -6.18198e-05)
(5.04241 -0.00212479 -9.50126e-05)
(5.0415 -0.00199263 -5.72022e-05)
(5.04249 -0.00141313 -0.000443727)
(5.0449 -0.000229486 -0.000683624)
(5.04539 -0.000837909 -0.000639665)
(5.05061 0.00239329 -0.000821463)
(5.05587 0.00210005 -0.000861462)
(5.07545 0.0104024 -0.000743103)
(5.09057 0.00949378 -0.000560607)
(5.15101 0.0358265 -0.000703303)
(5.20091 0.0302174 -0.000550437)
(5.37352 0.11964 -0.00140741)
(5.56542 0.0786549 -0.00129248)
(6.02043 0.477386 -0.00474259)
(6.83849 0.256346 -0.00560301)
(5.04236 0.000217649 -0.000219928)
(5.0431 0.000776742 -0.000746619)
(5.04246 0.00116433 -0.000919163)
(5.04111 0.00135114 -0.00105692)
(5.03987 0.00135573 -0.00105857)
(5.03955 0.0013808 -0.00127187)
(5.03962 0.00159211 -0.00133212)
(5.03803 0.00166516 -0.00122457)
(5.03844 0.00170084 -0.00119674)
(5.0372 0.00193043 -0.00128687)
(5.03481 0.00176865 -0.00178118)
(5.03582 0.00165321 -0.00209385)
(5.03487 0.00196846 -0.00182428)
(5.03279 0.00193667 -0.00165197)
(5.03383 0.00184916 -0.0017693)
(5.03387 0.00207283 -0.00186927)
(5.03209 0.00220301 -0.00189747)
(5.03118 0.00220388 -0.00167158)
(5.032 0.00226258 -0.00164715)
(5.03095 0.00229167 -0.00177975)
(5.03147 0.00242308 -0.00152948)
(5.03145 0.00266046 -0.00133558)
(5.02955 0.00268768 -0.00139879)
(5.02883 0.00258486 -0.00137986)
(5.02874 0.00244781 -0.00149374)
(5.02755 0.00235998 -0.00179429)
(5.02768 0.00225476 -0.0020722)
(5.02724 0.00248292 -0.00173318)
(5.02641 0.00254102 -0.00158469)
(5.02513 0.00222505 -0.00166238)
(5.02611 0.00201921 -0.00168654)
(5.02601 0.00214904 -0.00170765)
(5.02532 0.00214364 -0.00151984)
(5.02491 0.00222535 -0.00131344)
(5.02418 0.00229246 -0.00135365)
(5.02274 0.00238974 -0.0013152)
(5.02213 0.00245348 -0.00133601)
(5.02054 0.00235128 -0.00150982)
(5.02071 0.00248756 -0.00146731)
(5.01891 0.00380699 -0.00159743)
(5.01403 0.00318234 -0.00147038)
(5.00561 0.00817994 -0.00216133)
(4.99426 0.00691726 -0.00132162)
(4.9697 0.0217277 -0.0034341)
(4.93385 0.0210657 -0.00195929)
(4.87253 0.0534661 -0.00522608)
(4.75836 0.0711561 -0.00359469)
(4.59708 0.132361 -0.0101075)
(4.29382 0.211368 -0.0168748)
(3.94408 0.322615 -0.0321388)
(5.36892 0.000251595 -0.000338557)
(5.37081 0.000693343 -0.000578288)
(5.37269 0.00117127 -0.00107961)
(5.37458 0.00148125 -0.00119189)
(5.37705 0.00134258 -0.00160367)
(5.37923 0.00128221 -0.0014674)
(5.38134 0.00132722 -0.00146492)
(5.38338 0.00133072 -0.00117367)
(5.38563 0.00124159 -0.0016456)
(5.38817 0.00166144 -0.00141088)
(5.39052 0.00118496 -0.00151189)
(5.39258 0.00139759 -0.00162058)
(5.39513 0.00152431 -0.00165491)
(5.39758 0.00157396 -0.00142817)
(5.39993 0.00110913 -0.00175221)
(5.40239 0.00175797 -0.00165334)
(5.40499 0.00184048 -0.00164406)
(5.40743 0.00163618 -0.00124925)
(5.40966 0.00126389 -0.00140751)
(5.41244 0.0015155 -0.00125644)
(5.41462 0.00140523 -0.00139258)
(5.4178 0.00194736 -0.000911755)
(5.41992 0.00199848 -0.000544312)
(5.4225 0.00194934 -0.000354747)
(5.42444 0.00169983 -0.000807094)
(5.42681 0.00170346 -0.000947335)
(5.42914 0.00129558 -0.00148286)
(5.43213 0.00141677 -0.00160604)
(5.43429 0.00133585 -0.0014008)
(5.43723 0.00113335 -0.00105347)
(5.43909 0.000856972 -0.00115552)
(5.44212 0.00103439 -0.0010122)
(5.44498 0.00125188 -0.000845672)
(5.44705 0.0014372 -0.000729786)
(5.44927 0.00172837 -0.00109435)
(5.45091 0.00184911 -0.000840877)
(5.45204 0.00238225 -0.00121164)
(5.45634 0.00258122 -0.00125311)
(5.4567 0.00371361 -0.00124697)
(5.45537 0.00514536 -0.00127856)
(5.45726 0.00926106 -0.00150227)
(5.4518 0.0119384 -0.00171802)
(5.44815 0.0240658 -0.00100326)
(5.43043 0.0352107 -0.00176609)
(5.41767 0.0677144 0.000178053)
(5.36769 0.107382 -0.00306986)
(5.31086 0.201772 0.00206888)
(5.19343 0.310702 -0.00907323)
(5.0165 0.545493 -0.00295545)
(4.74013 0.826973 -0.034772)
(5.39222 -7.79466e-06 -0.000280946)
(5.39393 9.83557e-06 -0.000607481)
(5.39567 -4.43928e-05 -0.00116633)
(5.39725 -1.97722e-05 -0.00140771)
(5.3995 -4.19846e-05 -0.00145263)
(5.40155 -4.1955e-05 -0.00125098)
(5.40343 -0.000139563 -0.00139831)
(5.40543 -0.000223139 -0.00126273)
(5.40703 -9.9834e-05 -0.00126209)
(5.40945 -0.000179823 -0.00158169)
(5.41148 -0.000254591 -0.00150595)
(5.41398 -0.000266393 -0.00143536)
(5.41622 -0.000241142 -0.00175648)
(5.41904 -0.000226273 -0.00167818)
(5.42154 -0.000117469 -0.0016081)
(5.42392 3.50491e-05 -0.00140911)
(5.42621 0.000164133 -0.000936078)
(5.42839 0.000274003 -0.000864313)
(5.43082 0.000308906 -0.00141197)
(5.43354 0.000426439 -0.00131741)
(5.43631 0.000390245 -0.00118174)
(5.43942 0.000531713 -0.000938336)
(5.44241 0.000604803 -0.000982596)
(5.44571 0.000478665 -0.0013435)
(5.44877 0.000239475 -0.00117556)
(5.45202 0.000200066 -0.00112578)
(5.45432 0.000106074 -0.00163978)
(5.45758 -5.27125e-05 -0.00199066)
(5.46011 -0.000113125 -0.00168458)
(5.46236 -0.00020503 -0.00158142)
(5.46484 -0.000272877 -0.0016803)
(5.46695 -0.000320966 -0.0017254)
(5.46949 -0.000246652 -0.00181784)
(5.47183 7.06986e-05 -0.00194272)
(5.47371 0.000239453 -0.00193953)
(5.47558 0.000611735 -0.00189392)
(5.47793 0.000799674 -0.00194372)
(5.48144 0.00170618 -0.00211156)
(5.48276 0.00287422 -0.00180417)
(5.48878 0.00602869 -0.00207249)
(5.48687 0.00795567 -0.000960253)
(5.48768 0.0164883 -0.0034911)