/*--------------------------------*- C++ -*----------------------------------*\
| =========                 |                                                 |
| \\      /  F ield         | OpenFOAM: The Open Source CFD Toolbox           |
|  \\    /   O peration     | Version:  2.1.x                                 |
|   \\  /    A nd           | Web:      www.OpenFOAM.org                      |
|    \\/     M anipulation  |                                                 |
\*---------------------------------------------------------------------------*/
FoamFile
{
    version     2.0;
    format      ascii;
    class       volScalarField;
    location    "0.05";
    object      alpha1;
}
// * * * * * * * * * * * * * * * * * * * * * * * * * * * * * * * * * * * * * //

dimensions      [0 0 0 0 0 0 0];

internalField   nonuniform List<scalar> 
8000
(
1
1
1
1
1
1
1
1
1
1
1
1
1
1
1
1
1
1
1
1
1
1
1
1
1
1
1
1
1
1
1
1
1
1
1
1
1
1
1
1
1
1
1
1
1
1
1
1
1
1
1
1
1
1
1
1
1
1
1
1
1
1
1
1
1
1
1
1
1
1
1
1
1
1
1
1
1
1
1
1
1
1
1
1
1
1
1
1
1
1
1
1
1
1
1
1
1
1
1
1
1
1
1
1
1
1
1
1
1
1
1
1
1
1
1
1
1
1
1
1
1
1
1
1
1
1
1
1
1
1
1
1
1
1
1
1
1
1
1
1
1
1
1
1
1
1
1
1
1
1
1
1
1
1
1
1
1
1
1
1
1
1
1
1
1
1
1
1
1
1
1
1
1
1
1
1
1
1
1
1
1
1
1
1
1
1
1
1
1
1
1
1
1
1
1
1
1
1
1
1
1
1
1
1
1
1
1
1
1
1
1
1
1
1
1
1
1
1
1
1
1
1
1
1
1
1
1
1
1
1
1
1
1
1
1
1
1
1
1
1
1
1
1
1
1
1
1
1
1
1
1
1
1
1
1
1
1
1
1
1
1
1
1
1
1
1
1
1
1
1
1
1
1
1
1
1
1
1
1
1
1
1
1
1
1
1
1
1
1
1
1
1
1
1
1
1
1
1
1
1
1
1
1
1
1
1
1
1
1
1
1
1
1
1
1
1
1
1
1
1
1
1
1
1
1
1
1
1
1
1
1
1
1
1
1
1
1
1
1
1
1
1
1
1
1
1
1
1
1
1
1
1
1
1
1
1
1
1
1
1
1
1
1
1
1
1
1
1
1
1
1
1
1
1
1
1
1
1
1
1
1
1
1
1
1
1
1
1
1
1
1
1
1
1
1
1
1
1
1
1
1
1
1
1
1
1
1
1
1
1
1
1
1
1
1
1
1
1
1
1
1
1
1
1
1
1
1
1
1
1
1
1
1
1
1
1
1
1
1
1
1
1
1
1
1
1
1
1
1
1
1
1
1
1
1
1
1
1
1
1
1
1
1
1
1
1
1
1
1
1
1
1
1
1
1
1
1
1
1
1
1
1
1
1
1
1
1
1
1
1
1
1
1
1
1
1
1
1
1
1
1
1
1
1
1
1
1
1
1
1
1
1
1
1
1
1
1
1
1
1
1
1
1
1
1
1
1
1
1
1
1
1
1
1
1
1
1
1
1
1
1
1
1
1
1
1
1
1
1
1
1
1
1
1
1
1
1
1
1
1
1
1
1
1
1
1
1
1
1
1
1
1
1
1
1
1
1
1
1
1
1
1
1
1
1
1
1
1
1
1
1
1
1
1
1
1
1
1
1
1
1
1
1
1
1
1
1
1
1
1
1
1
1
1
1
1
1
1
1
1
1
1
1
1
1
1
1
1
1
1
1
1
1
1
1
1
1
1
1
1
1
1
1
1
1
1
1
1
1
1
1
1
1
1
1
1
1
1
1
1
1
1
1
1
1
1
1
1
1
1
1
1
1
1
1
1
1
1
1
1
1
1
1
1
1
1
1
1
1
1
1
1
1
1
1
1
1
1
1
1
1
1
1
1
1
1
1
1
1
1
1
1
1
1
1
1
1
1
1
1
1
1
1
1
1
1
1
1
1
1
1
1
1
1
1
1
1
1
1
1
1
1
1
1
1
1
1
1
1
1
1
1
1
1
1
1
1
1
1
1
1
1
1
1
1
1
1
1
1
1
1
1
1
1
1
1
1
1
1
1
1
1
1
1
1
1
1
1
1
1
1
1
1
1
1
1
1
1
1
1
1
1
1
1
1
1
1
1
1
1
1
1
1
1
1
1
1
1
1
1
1
1
1
1
1
1
1
1
1
1
1
1
1
1
1
1
1
1
1
1
1
1
1
1
1
1
1
1
1
1
1
1
1
1
1
1
1
1
1
1
1
1
1
1
1
1
1
1
1
1
1
1
1
1
1
1
1
1
1
1
1
1
1
1
1
1
1
1
1
1
1
1
1
1
1
1
1
1
1
1
1
1
1
1
1
1
1
1
1
1
1
1
1
1
1
1
1
1
1
1
1
1
1
1
1
1
1
1
1
1
1
1
1
1
1
1
1
1
1
1
1
1
1
1
1
1
1
1
1
1
1
1
1
1
1
1
1
1
1
1
1
1
1
1
1
1
1
1
1
1
1
1
1
1
1
1
1
1
1
1
1
1
1
1
1
1
1
1
1
1
1
1
1
1
1
1
1
1
1
1
1
1
1
1
1
1
1
1
1
1
1
1
1
1
1
1
1
1
1
1
1
1
1
1
1
1
1
1
1
1
1
1
1
1
1
1
1
1
1
1
1
1
1
1
1
1
1
1
1
1
1
1
1
1
1
1
1
1
1
1
1
1
1
1
1
1
1
1
1
1
1
1
1
1
1
1
1
1
1
1
1
1
1
1
1
1
1
1
1
1
1
1
1
1
1
1
1
1
1
1
1
1
1
1
1
1
1
1
1
1
1
1
1
1
1
1
1
1
1
1
1
1
1
1
1
1
1
1
1
1
1
1
1
1
1
1
1
1
1
1
1
1
1
1
1
1
1
1
1
1
1
1
1
1
1
1
1
1
1
1
1
1
1
1
1
1
1
1
1
1
1
1
1
1
1
1
1
1
1
1
1
1
1
1
1
1
1
1
1
1
1
1
1
1
1
1
1
1
1
1
1
1
1
1
1
1
1
1
1
1
1
1
1
1
1
1
1
1
1
1
1
1
1
1
1
1
1
1
1
1
1
1
1
1
1
1
1
1
1
1
1
1
1
1
1
1
1
1
1
1
1
1
1
1
1
1
1
1
1
1
1
1
1
1
1
1
1
1
1
1
1
1
1
1
1
1
1
1
1
1
1
1
1
1
1
1
1
1
1
1
1
1
1
1
1
1
1
1
1
1
1
1
1
1
1
1
1
1
1
1
1
1
1
1
1
1
1
1
1
1
1
1
1
1
1
1
1
1
1
1
1
1
1
1
1
1
1
1
1
1
1
1
1
1
1
1
1
1
1
1
1
1
1
1
1
1
1
1
1
1
1
1
1
1
1
1
1
1
1
1
1
1
1
1
1
1
1
1
1
1
1
1
1
1
1
1
1
1
1
1
1
1
1
1
1
1
1
1
1
1
1
1
1
1
1
1
1
1
1
1
1
1
1
1
1
1
1
1
1
1
1
1
1
1
1
1
1
1
1
1
1
1
1
1
1
1
1
1
1
1
1
1
1
1
1
1
1
1
1
1
1
1
1
1
1
1
1
1
1
1
1
1
1
1
1
1
1
1
1
1
1
1
1
1
1
1
1
1
1
1
1
1
1
1
1
1
1
1
1
1
1
1
1
1
1
1
1
1
1
1
1
1
1
1
1
1
1
1
1
1
1
1
1
1
1
1
1
1
1
1
1
1
1
1
1
1
1
1
1
1
1
1
1
1
1
1
1
1
1
1
1
1
1
1
1
1
1
1
1
1
1
1
1
1
1
1
1
1
1
1
1
1
1
1
1
1
1
1
1
1
1
1
1
1
1
1
1
1
1
1
1
1
1
1
1
1
1
1
1
1
1
1
1
1
1
1
1
1
1
1
1
1
1
1
1
1
1
1
1
1
1
1
1
1
1
1
1
1
1
1
1
1
1
1
1
1
1
1
1
1
1
1
1
1
1
1
1
1
1
1
1
1
1
1
1
1
1
1
1
1
1
1
1
1
1
1
1
1
1
1
1
1
1
1
1
1
1
1
1
1
1
1
1
1
1
1
1
1
1
1
1
1
1
1
1
1
1
1
1
1
1
1
1
1
1
1
1
1
1
1
1
1
1
1
1
1
1
1
1
1
1
1
1
1
1
1
1
1
1
1
1
1
1
1
1
1
1
1
1
1
1
1
1
1
1
1
1
1
1
1
1
1
1
1
1
1
1
1
1
1
1
1
1
1
1
1
1
1
1
1
1
1
1
1
1
1
1
1
1
1
1
1
1
1
1
1
1
1
1
1
1
1
1
1
1
1
1
1
1
1
1
1
1
1
1
1
1
1
1
1
1
1
1
1
1
1
1
1
1
1
1
1
1
1
1
1
1
1
1
1
1
1
1
1
1
1
1
1
1
1
1
1
1
1
1
1
1
1
1
1
1
1
1
1
1
1
1
1
1
1
1
1
1
1
1
1
1
1
1
1
1
1
1
1
1
1
1
1
1
1
1
1
1
1
1
1
1
1
1
1
1
1
1
1
1
1
1
1
1
1
1
1
1
1
1
1
1
1
1
1
1
1
1
1
1
1
1
1
1
1
1
1
1
1
1
1
1
1
1
1
1
1
1
1
1
1
1
1
1
1
1
1
1
1
1
1
1
1
1
1
1
1
1
1
1
1
1
1
1
1
1
1
1
1
1
1
1
1
1
1
1
1
1
1
1
1
1
1
1
1
1
1
1
1
1
1
1
1
1
1
1
1
1
1
1
1
1
1
1
1
1
1
1
1
1
1
1
1
1
1
1
1
1
1
1
1
1
1
1
1
1
1
1
1
1
1
1
1
1
1
1
1
1
1
1
1
1
1
1
1
1
1
1
1
1
1
1
1
1
1
1
1
1
1
1
1
1
1
1
1
1
1
1
1
1
1
1
1
1
1
1
1
1
1
1
1
1
1
1
1
1
1
1
1
1
1
1
1
1
1
1
1
1
1
1
1
1
1
1
1
1
1
1
1
1
1
1
1
1
1
1
1
1
1
1
1
1
1
1
1
1
1
1
1
1
1
1
1
1
1
1
1
1
1
1
1
1
1
1
1
1
1
1
1
1
1
1
1
1
1
1
1
1
1
1
1
1
1
1
1
1
1
1
1
1
1
1
1
1
1
1
1
1
1
1
1
1
1
1
1
1
1
1
1
1
1
1
1
1
1
1
1
1
1
1
1
1
1
1
1
1
1
1
1
1
1
1
1
1
1
1
1
1
1
1
1
1
1
1
1
1
1
1
1
1
1
1
1
1
1
1
1
1
1
1
1
1
1
1
1
1
1
1
1
1
1
1
1
1
1
1
1
1
1
1
1
1
1
1
1
1
1
1
1
1
1
1
1
1
1
1
1
1
1
1
1
1
1
1
1
1
1
1
1
1
1
1
1
1
1
1
1
1
1
1
1
1
1
1
1
1
1
1
1
1
1
1
1
1
1
1
1
1
1
1
1
1
1
1
1
1
1
1
1
1
1
1
1
1
1
1
1
1
1
1
1
1
1
1
1
1
1
1
1
1
1
1
1
1
1
1
1
1
1
1
1
1
1
1
1
1
1
1
1
1
1
1
1
1
1
1
1
1
1
1
1
1
1
1
1
1
1
1
1
1
1
1
1
1
1
1
1
1
1
1
1
1
1
1
1
1
1
1
1
1
1
1
1
1
1
1
1
1
1
1
1
1
1
1
1
1
1
1
1
1
1
1
1
1
1
1
1
1
1
1
1
1
1
1
1
1
1
1
1
1
1
1
1
1
1
1
1
1
1
1
1
1
1
1
1
1
1
1
1
1
1
1
1
1
1
1
1
1
1
1
1
1
1
1
1
1
1
1
1
1
1
1
1
1
1
1
1
1
1
1
1
1
1
1
1
1
1
1
1
1
1
1
1
1
1
1
1
1
1
1
1
1
1
1
1
1
1
1
1
1
1
1
1
1
1
1
1
1
1
1
1
1
1
1
1
1
1
1
1
1
1
1
1
1
1
1
1
1
1
1
1
1
1
1
1
1
1
1
1
1
1
1
1
1
1
1
1
1
1
1
1
1
1
1
1
1
1
1
1
1
1
1
1
1
1
1
1
1
1
1
1
1
1
1
1
1
1
1
1
1
1
1
1
1
1
1
1
1
1
1
1
1
1
1
1
1
1
1
1
1
1
1
1
1
1
1
1
1
1
1
1
1
1
1
1
1
1
1
1
1
1
1
1
1
1
1
1
1
1
1
1
1
1
1
1
1
1
1
1
1
1
1
1
1
1
1
1
1
1
1
1
1
1
1
1
1
1
1
1
1
1
1
1
1
1
1
1
1
1
1
1
1
1
1
1
1
1
1
1
1
1
1
1
1
1
1
1
1
1
1
1
1
1
1
1
1
1
1
1
1
1
1
1
1
1
1
1
1
1
1
1
1
1
1
1
1
1
1
1
1
1
1
1
1
1
1
1
1
1
1
1
1
1
1
1
1
1
1
1
1
1
1
1
1
1
1
1
1
1
1
1
1
1
1
1
1
1
1
1
1
1
1
1
1
1
1
1
1
1
1
1
1
1
1
1
1
1
1
1
1
1
1
1
1
1
1
1
1
1
1
1
1
1
1
1
1
1
1
1
1
1
1
1
1
1
1
1
1
1
1
1
1
1
1
1
1
1
1
1
1
1
1
1
1
1
1
1
1
1
1
1
1
1
1
1
1
1
1
1
1
1
1
1
1
1
1
1
1
1
1
1
1
1
1
1
1
1
1
1
1
1
1
1
1
1
1
1
1
1
1
1
1
1
1
1
1
1
1
1
1
1
1
1
1
1
1
1
1
1
1
1
1
1
1
1
1
1
1
1
1
1
1
1
1
1
1
1
1
1
1
1
1
1
1
1
1
1
1
1
1
1
1
1
1
1
1
1
1
1
1
1
1
1
1
1
1
1
1
1
1
1
1
1
1
1
1
1
1
1
1
1
1
1
1
1
1
1
1
1
1
1
1
1
1
1
1
1
1
1
1
1
1
1
1
1
1
1
1
1
1
1
1
1
1
1
1
1
1
1
1
1
1
1
1
1
1
1
1
1
1
1
1
1
1
1
1
1
1
1
1
1
1
1
1
1
1
1
1
1
1
1
1
1
1
1
1
1
1
1
1
1
1
1
1
1
1
1
1
1
1
1
1
1
1
1
1
1
1
1
1
1
1
1
1
1
1
1
1
1
1
1
1
1
1
1
1
1
1
1
1
1
1
1
1
1
1
1
1
1
1
1
1
1
1
1
1
1
1
1
1
1
1
1
1
1
1
1
1
1
1
1
1
1
1
1
1
1
1
1
1
1
1
1
1
1
1
1
1
1
1
1
1
1
1
1
1
1
1
1
1
1
1
1
1
1
1
1
1
1
1
1
1
1
1
1
1
1
1
1
1
1
1
1
1
1
1
1
1
1
1
1
1
1
1
1
1
1
1
1
1
1
1
1
1
1
1
1
1
1
1
1
1
1
1
1
1
1
1
1
1
1
1
1
1
1
1
1
1
1
1
1
1
1
1
1
1
1
1
1
1
1
1
1
1
1
1
1
1
1
1
1
1
1
1
1
1
1
1
1
1
1
1
1
1
1
1
1
1
1
1
1
1
1
1
1
1
1
1
1
1
1
1
1
1
1
1
1
1
1
1
1
1
1
1
1
1
1
1
1
1
1
1
1
1
1
1
1
1
1
1
1
1
1
1
1
1
1
1
1
1
1
1
1
1
1
1
1
1
1
1
1
1
1
1
1
1
1
1
1
1
1
1
1
1
1
1
1
1
1
1
1
1
1
1
1
0.999999
1
1
1
1
1
1
1
1
1
1
1
1
1
1
1
1
1
1
0.999999
0.999999
1
1
1
1
1
1
1
1
1
1
1
1
1
1
1
1
1
1
0.999999
0.999998
1
1
1
1
1
1
1
1
1
1
1
1
1
1
1
1
1
1
0.999998
0.999997
1
1
1
1
1
1
1
1
1
1
1
1
1
1
1
1
1
1
0.999997
0.999995
1
1
1
1
1
1
1
1
1
1
1
1
1
1
1
1
1
1
0.999995
0.999993
1
1
1
1
1
1
1
1
1
1
1
1
1
1
1
1
1
1
0.999993
0.999991
1
1
1
1
1
1
1
1
1
1
1
1
1
1
1
1
1
1
0.999991
0.999985
1
1
0.999999
0.999999
0.999998
0.999998
0.999999
0.999999
1
1
0.999999
0.999999
0.999998
0.999998
0.999999
0.999999
1
1
0.999985
0.999975
0.999999
0.999998
0.999991
0.999979
0.999969
0.999967
0.999978
0.999986
0.999987
0.999987
0.999986
0.999978
0.999967
0.999969
0.999979
0.999991
0.999998
0.999999
0.999975
0.999949
0.999996
0.999972
0.999879
0.99972
0.99957
0.999475
0.999533
0.999627
0.999609
0.999609
0.999627
0.999533
0.999475
0.99957
0.99972
0.999879
0.999972
0.999996
0.999949
0.999867
0.99996
0.999663
0.99847
0.996733
0.99471
0.992292
0.988368
0.986588
0.982809
0.98281
0.986588
0.98837
0.992293
0.994711
0.996733
0.99847
0.999663
0.99996
0.999867
0.999662
0.999447
0.995693
0.981426
0.957777
0.892482
0.820067
0.71374
0.636254
0.594532
0.594536
0.636255
0.713764
0.820086
0.892505
0.957784
0.981428
0.995693
0.999447
0.999662
0.999056
0.990147
0.944275
0.807542
0.591495
0.38749
0.2119
0.128544
0.0836246
0.0653094
0.0653208
0.0836472
0.128566
0.211918
0.387527
0.591518
0.807563
0.944271
0.990145
0.999056
0.995561
0.898426
0.565073
0.285668
0.102596
0.029265
0.0119243
0.00276187
0.00106335
7.69445e-05
7.88186e-05
0.0010609
0.00276755
0.0119334
0.0292706
0.102605
0.285676
0.565081
0.898414
0.995561
0.869333
0.336158
0.11007
0.0154578
0.00550897
0.000133122
0.000162394
1.53917e-05
4.08087e-06
6.66506e-07
7.00482e-07
3.89324e-06
1.47925e-05
0.000162774
0.000132869
0.00551554
0.0154572
0.110061
0.336155
0.86932
0.239805
0.0144314
0.0149004
0.000226565
0.000124857
2.19502e-05
2.2005e-05
2.28126e-05
4.25928e-06
4.15495e-07
4.17353e-07
4.21703e-06
2.15892e-05
2.11543e-05
2.10779e-05
0.000124611
0.000226973
0.0149282
0.0143822
0.239779
0.0345002
0.00450287
0.00375484
0.00108463
0.000196457
2.24614e-05
2.19502e-05
5.88818e-05
1.00368e-05
4.13642e-07
4.99847e-07
1.0251e-05
5.52324e-05
2.10779e-05
2.18145e-05
0.000196427
0.00108386
0.00375057
0.00454295
0.0344579
0.00412133
0.000758839
0.000976724
0.000157079
6.88354e-05
1.95983e-05
6.56081e-05
6.41681e-05
1.22051e-05
3.0619e-07
3.39374e-07
1.20815e-05
6.23261e-05
6.7666e-05
2.01844e-05
6.45229e-05
0.000153305
0.000973371
0.000755067
0.00412209
0.000982893
0.000503302
0.00030308
0.000128984
6.99246e-05
2.15038e-05
8.43351e-05
5.27901e-05
1.14752e-05
2.20856e-07
2.00705e-07
1.01295e-05
5.58421e-05
9.32893e-05
2.64695e-05
6.06768e-05
0.00012609
0.000302372
0.000515956
0.000988108
0.000619207
0.00043663
0.000128772
6.37066e-05
6.37004e-05
6.68192e-05
9.38885e-05
5.17786e-05
7.67651e-06
9.84784e-08
7.03886e-08
5.61163e-06
4.90032e-05
9.32309e-05
8.31377e-05
5.50118e-05
5.50119e-05
0.000141821
0.000444552
0.000619903
0.000563279
0.000334595
0.000185521
7.99999e-05
9.6152e-05
0.00010553
9.43138e-05
2.63319e-05
1.31718e-06
5.53076e-09
3.73993e-09
1.1042e-06
2.49454e-05
9.19756e-05
9.78517e-05
6.77507e-05
7.1816e-05
0.000202721
0.000331223
0.000562911
0.000480513
0.000213529
0.000153887
0.000144072
0.000104509
8.25525e-05
3.78494e-05
4.78633e-06
1.02579e-07
3.38148e-10
2.80311e-10
8.89354e-08
4.52767e-06
3.71552e-05
8.47596e-05
0.00011956
0.000149356
0.00015658
0.000213231
0.000472649
0.000269067
0.00012286
7.81196e-05
7.36844e-05
5.51002e-05
2.78225e-05
6.40321e-06
5.19804e-07
1.40677e-08
1.4553e-10
1.33159e-10
1.26781e-08
5.13315e-07
6.93858e-06
3.11922e-05
5.89021e-05
7.53859e-05
7.6291e-05
0.000122598
0.00026759
8.74065e-05
5.18154e-05
3.33287e-05
2.42215e-05
1.43786e-05
5.0081e-06
9.59688e-07
9.7068e-08
4.28756e-09
7.12947e-11
6.77776e-11
4.06282e-09
9.74019e-08
1.0111e-06
5.38752e-06
1.47847e-05
2.42947e-05
3.29918e-05
5.19168e-05
8.75264e-05
1.30108e-05
1.09661e-05
9.04148e-06
5.81954e-06
2.83067e-06
9.43613e-07
1.98784e-07
2.21588e-08
1.20501e-09
2.94992e-11
2.91258e-11
1.16957e-09
2.21134e-08
2.02028e-07
9.55418e-07
2.8438e-06
5.82239e-06
9.10645e-06
1.10561e-05
1.31103e-05
4.79165e-07
9.37397e-07
1.12733e-06
8.44875e-07
4.47283e-07
1.6181e-07
3.45861e-08
3.72386e-09
2.72537e-10
1.01685e-11
1.03596e-11
2.70295e-10
3.66851e-09
3.47343e-08
1.6354e-07
4.52931e-07
8.58891e-07
1.15055e-06
9.56665e-07
4.89098e-07
2.06684e-09
2.18784e-08
5.13213e-08
5.15769e-08
3.4994e-08
1.42659e-08
3.05082e-09
3.45485e-10
4.52593e-11
2.43512e-12
2.54524e-12
4.59273e-11
3.39253e-10
3.06581e-09
1.47082e-08
3.6358e-08
5.37373e-08
5.33637e-08
2.27639e-08
2.15025e-09
5.39521e-13
8.13802e-11
5.84697e-10
9.16615e-10
8.11133e-10
4.09892e-10
9.85456e-11
1.54273e-11
4.16396e-12
3.10042e-13
3.31424e-13
4.31716e-12
1.53506e-11
9.95911e-11
4.31031e-10
8.66882e-10
9.80248e-10
6.22605e-10
8.66527e-11
5.75814e-13
1.04823e-17
2.88852e-14
1.11098e-12
3.27635e-12
4.12215e-12
2.95964e-12
9.56972e-13
2.75682e-13
1.5471e-13
1.53373e-14
1.67117e-14
1.63284e-13
2.80938e-13
9.74852e-13
3.15202e-12
4.49783e-12
3.59001e-12
1.21273e-12
3.15018e-14
1.11567e-17
1.49564e-22
1.15032e-18
2.46086e-16
1.8114e-15
3.81481e-15
4.27332e-15
2.02315e-15
1.5875e-15
1.70545e-15
2.10138e-16
2.32516e-16
1.82532e-15
1.66051e-15
2.08535e-15
4.58416e-15
4.22274e-15
2.0376e-15
2.75909e-16
1.25881e-18
1.58575e-22
1.6549e-27
3.81336e-23
1.25144e-20
1.31734e-19
4.95e-19
9.31858e-19
7.03982e-19
2.36454e-18
4.21377e-18
5.5408e-19
6.2974e-19
4.55323e-18
2.52754e-18
7.35292e-19
1.00449e-18
5.54364e-19
1.50423e-19
1.41088e-20
4.19627e-23
1.74958e-27
1.50642e-32
1.10084e-27
5.76554e-25
8.64784e-24
3.42367e-23
6.81815e-23
5.9744e-23
7.45993e-22
1.79066e-21
2.14068e-22
2.50875e-22
1.94877e-21
8.08662e-22
6.26529e-23
7.34303e-23
3.83055e-23
9.86164e-24
6.54684e-25
1.21965e-27
1.59252e-32
1.193e-37
2.86852e-32
2.48514e-29
5.36952e-28
2.36128e-27
4.90305e-27
5.32701e-27
7.81884e-26
1.539e-25
1.58094e-26
1.85653e-26
1.67374e-25
8.43857e-26
5.62207e-27
5.27029e-27
2.63277e-27
6.13942e-28
2.83964e-29
3.19971e-32
1.26572e-37
8.6341e-43
6.94159e-37
1.02588e-33
3.14006e-32
1.6222e-31
3.52809e-31
5.08743e-31
8.06366e-30
1.30926e-29
1.15959e-30
1.36421e-30
1.42352e-29
8.67473e-30
5.41427e-31
3.77765e-31
1.79731e-31
3.59275e-32
1.17627e-33
7.78628e-37
9.22136e-43
5.94029e-48
1.59709e-41
4.11832e-38
1.74801e-36
1.09969e-35
2.57019e-35
5.26114e-35
8.20306e-34
1.10322e-33
8.39818e-35
9.89967e-35
1.19913e-33
8.79949e-34
5.6481e-35
2.73793e-35
1.20856e-35
1.99401e-36
4.72215e-38
1.79764e-41
6.39476e-48
3.99467e-53
3.56275e-46
1.62247e-42
9.39924e-41
7.29971e-40
1.90115e-39
5.84624e-39
8.26364e-38
9.26327e-38
6.00342e-39
7.09175e-39
1.00632e-37
8.84089e-38
6.31869e-39
2.01467e-39
7.95113e-40
1.06485e-40
1.85486e-42
4.01376e-46
4.331e-53
2.66771e-58
7.82507e-51
6.30645e-47
4.95125e-45
4.73584e-44
1.43027e-43
6.81063e-43
8.2526e-42
7.79992e-42
4.24652e-43
5.03293e-43
8.46467e-42
8.80836e-42
7.3856e-43
1.509e-43
5.11144e-44
5.55254e-45
7.1736e-47
8.80201e-51
2.9065e-58
1.78005e-63
1.70946e-55
2.42678e-51
2.58169e-49
3.01109e-48
1.10347e-47
8.07426e-47
8.15341e-46
6.59947e-46
2.99517e-47
3.56138e-47
7.15188e-46
8.68451e-46
8.75629e-47
1.16061e-47
3.22094e-48
2.8599e-49
2.7433e-51
1.91634e-55
1.94383e-63
1.20926e-68
3.73243e-60
9.26632e-56
1.33899e-53
1.88631e-52
8.87612e-52
9.50501e-51
7.93892e-50
5.59828e-50
2.11807e-51
2.52384e-51
6.05695e-50
8.44018e-50
1.02845e-50
9.32067e-52
2.00096e-52
1.46426e-53
1.04033e-55
4.16573e-60
1.30371e-68
1.31666e-73
8.14944e-65
3.51533e-60
6.90801e-58
1.17257e-56
7.57437e-56
1.09332e-54
7.59434e-54
4.74105e-54
1.50242e-55
1.79381e-55
5.11978e-54
8.05918e-54
1.1788e-54
7.95093e-56
1.2346e-56
7.46202e-58
3.91881e-60
9.05376e-65
3.93294e-73
3.33991e-78
1.7775e-69
1.32534e-64
3.53618e-62
7.29769e-61
6.89469e-60
1.2181e-58
7.12948e-58
3.99258e-58
1.0672e-59
1.27566e-59
4.30236e-58
7.55147e-58
1.30799e-58
7.24002e-60
7.63558e-61
3.7783e-62
1.4672e-64
1.97675e-69
1.80117e-77
9.5254e-83
3.87108e-74
4.96391e-69
1.79152e-66
4.59838e-65
6.61205e-64
1.30965e-62
6.57442e-62
3.33644e-62
7.58292e-64
9.06178e-64
3.58679e-62
6.94875e-62
1.40066e-62
6.94692e-64
4.78764e-65
1.8965e-66
5.46069e-69
4.34515e-74
5.37068e-82
2.33768e-87
8.41712e-79
1.84573e-73
8.97512e-71
2.97183e-69
6.52575e-68
1.35812e-66
5.96778e-66
2.76684e-66
5.39574e-68
6.43301e-68
2.96652e-66
6.29283e-66
1.44686e-66
6.85866e-68
3.08363e-69
9.42817e-71
2.01828e-73
9.54468e-79
1.26398e-86
5.00671e-92
1.82603e-83
6.8091e-78
4.45309e-75
1.99429e-73
6.47603e-72
1.36025e-70
5.34614e-70
2.28081e-70
3.85949e-72
4.57789e-72
2.43809e-70
5.62345e-70
1.44367e-70
6.80505e-72
2.06542e-73
4.64857e-75
7.40105e-78
2.08615e-83
2.64063e-91
9.70607e-97
3.94685e-88
2.49136e-82
2.19686e-79
1.39996e-77
6.35377e-76
1.31902e-74
4.7385e-74
1.87386e-74
2.79272e-76
3.2844e-76
1.99643e-74
4.9718e-74
1.3949e-74
6.6715e-76
1.44894e-77
2.28191e-79
2.69188e-82
4.52642e-88
5.13583e-96
1.74997e-101
8.48591e-93
9.04131e-87
1.08411e-83
1.02691e-81
6.10169e-80
1.24214e-78
4.16512e-78
1.53907e-78
2.06262e-80
2.39597e-80
1.63385e-78
4.35934e-78
1.30917e-78
6.3993e-80
1.06289e-81
1.12186e-83
9.71351e-87
9.73764e-93
9.51785e-101
2.9928e-106
1.81277e-97
3.25587e-91
5.39107e-88
7.79749e-86
5.70781e-84
1.13985e-82
3.63861e-82
1.26783e-82
1.5731e-84
1.79774e-84
1.34078e-82
3.79909e-82
1.19759e-82
5.97763e-84
8.07247e-86
5.56425e-88
3.47953e-91
2.0759e-97
1.70315e-105
4.94925e-111
3.85006e-102
1.16428e-95
2.72245e-92
6.04486e-90
5.1933e-88
1.0229e-86
3.16564e-86
1.05102e-86
1.25629e-88
1.40735e-88
1.1071e-86
3.29757e-86
1.07155e-86
5.43021e-88
6.25841e-90
2.8054e-92
1.23835e-95
4.41447e-102
2.983e-110
8.0536e-116
8.15434e-107
4.13805e-100
1.40549e-96
4.71957e-94
4.59834e-92
9.00958e-91
2.74846e-90
8.79818e-91
1.06552e-92
1.16726e-92
9.23026e-91
2.8566e-90
9.41193e-91
4.80008e-92
4.88515e-94
1.4471e-96
4.38271e-100
9.48277e-107
5.18683e-115
1.30696e-120
1.72955e-111
1.46339e-104
7.44854e-101
3.67136e-98
3.96902e-96
7.81668e-95
2.38607e-94
7.46218e-95
9.69505e-97
1.0384e-96
7.79684e-95
2.47457e-94
8.1443e-95
4.13597e-96
3.79813e-98
7.66606e-101
1.54409e-104
2.06477e-111
9.02719e-120
2.13497e-125
3.6881e-116
5.15623e-109
4.05451e-105
2.82494e-102
3.34764e-100
6.70369e-99
2.07516e-98
6.43211e-99
9.4786e-101
9.94897e-101
6.69332e-99
2.14754e-98
6.96703e-99
3.48217e-100
2.92017e-102
4.1717e-105
5.42209e-109
4.56668e-116
1.58144e-124
3.53355e-130
7.93095e-121
1.81316e-113
2.25997e-109
2.141e-106
2.76694e-104
5.7021e-103
1.8109e-102
5.64882e-103
9.87606e-105
1.02005e-104
5.85463e-103
1.87013e-102
5.91157e-103
2.87271e-104
2.21099e-106
2.32426e-109
1.90066e-113
1.02787e-120
2.80257e-129
5.93746e-135
1.7242e-125
6.37619e-118
1.28262e-113
1.59512e-110
2.24803e-108
4.8254e-107
1.58776e-106
5.06433e-107
1.08057e-108
1.10319e-108
5.22811e-107
1.63624e-106
4.99062e-107
2.32936e-108
1.64539e-110
1.31817e-113
6.66384e-118
2.3601e-125
5.0501e-134
1.0159e-139
3.799e-130
2.24782e-122
7.36175e-118
1.16778e-114
1.80111e-112
4.07385e-111
1.40006e-110
4.64144e-111
1.2214e-112
1.23733e-112
4.77303e-111
1.43977e-110
4.2033e-111
1.86239e-112
1.20308e-114
7.55838e-118
2.34227e-122
5.54589e-130
9.3052e-139
1.77514e-144
8.50656e-135
7.96497e-127
4.24531e-122
8.40609e-119
1.42756e-116
3.43917e-115
1.24246e-114
4.35286e-115
1.40598e-116
1.41731e-116
4.45946e-115
1.275e-114
3.54003e-115
1.47293e-116
8.64851e-119
4.35357e-122
8.27492e-127
1.33884e-134
1.76345e-143
3.17832e-149
1.9417e-139
2.84427e-131
2.44631e-126
5.95744e-123
1.12277e-120
2.90836e-119
1.1103e-118
4.1797e-119
1.63032e-120
1.63847e-120
4.26661e-119
1.13695e-118
2.98661e-119
1.15585e-120
6.12054e-123
2.50548e-126
2.94624e-131
3.33345e-139
3.45623e-148
5.84775e-154
4.53169e-144
1.02589e-135
1.40289e-130
4.16408e-127
8.78657e-125
2.46669e-123
9.99646e-123
4.10969e-123
1.88966e-124
1.89566e-124
4.18085e-123
1.02145e-122
2.52719e-123
9.02464e-125
4.27173e-127
1.43492e-130
1.0596e-135
8.58768e-144
7.0382e-153
1.10675e-158
1.084e-148
3.74327e-140
7.98487e-135
2.87638e-131
6.85794e-129
2.09966e-127
9.07377e-127
4.1352e-127
2.17801e-128
2.18264e-128
4.19352e-127
9.25184e-127
2.14629e-127
7.02744e-129
2.9462e-131
8.15662e-135
3.85556e-140
2.29364e-148
1.49411e-157
2.15931e-163
2.66175e-153
1.38253e-144
4.50388e-139
1.96775e-135
5.34793e-133
1.79415e-131
8.31072e-131
4.25127e-131
2.48796e-132
2.49182e-132
4.29898e-131
8.45569e-131
1.82999e-131
5.46757e-133
2.01231e-135
4.59498e-139
1.42033e-144
6.35222e-153
3.3109e-162
4.3752e-168
6.7149e-158
5.16636e-149
2.51609e-143
1.33603e-139
4.1717e-137
1.53895e-135
7.68883e-135
4.45401e-135
2.81075e-136
2.81431e-136
4.49278e-135
7.80636e-135
1.56642e-135
4.25555e-137
1.36407e-139
2.5639e-143
5.29538e-149
1.82074e-157
7.64722e-167
9.28988e-173
1.74169e-162
1.95075e-153
1.39235e-147
9.02125e-144
3.25714e-141
1.32487e-139
7.19389e-139
4.73917e-139
3.1366e-140
3.14022e-140
4.77032e-139
7.28862e-139
1.34587e-139
3.3156e-141
9.19542e-144
1.41717e-147
1.99555e-153
5.38018e-162
1.83257e-171
2.08577e-177
4.65101e-167
7.42836e-158
7.63759e-152
6.06874e-148
2.54571e-145
1.14457e-143
6.81445e-143
5.10127e-143
3.45518e-144
3.45916e-144
5.12581e-143
6.89019e-143
1.16058e-143
2.58629e-145
6.17572e-148
7.765e-152
7.58693e-158
1.63031e-166
4.5251e-176
4.95006e-182
1.28061e-171
2.84649e-162
4.15735e-156
4.07345e-152
1.99124e-149
9.92303e-148
6.54047e-147
5.53297e-147
3.75624e-148
3.76075e-148
5.5517e-147
6.60041e-147
1.00446e-147
2.01931e-149
4.13851e-152
4.22207e-156
2.9038e-162
5.0364e-171
1.14277e-180
1.21996e-186
3.63743e-176
1.0953e-166
2.24864e-160
2.73118e-156
1.55811e-153
8.6353e-152
6.36242e-151
6.0249e-151
4.03017e-152
4.0353e-152
6.03845e-151
6.40918e-151
8.72716e-152
1.57746e-153
2.7704e-156
2.28117e-160
1.11644e-166
1.57723e-175
2.93133e-185
3.05275e-191
1.06322e-180
4.22446e-171
1.21038e-164
1.83058e-160
1.21908e-157
7.54663e-156
6.2705e-155
6.56572e-155
4.26854e-156
4.2743e-156
6.57459e-155
6.30629e-155
7.61563e-156
1.23238e-157
1.85405e-160
1.22656e-164
4.30396e-171
4.98276e-180
7.5904e-190
7.63116e-196
3.17887e-185
1.63082e-175
6.49379e-169
1.22702e-164
9.53397e-162
6.62788e-160
6.2544e-159
7.14244e-159
4.46458e-160
4.47091e-160
7.14703e-159
6.28103e-159
6.67931e-160
9.62499e-162
1.24097e-164
6.5735e-169
1.66123e-175
1.58153e-184
1.97166e-194
1.88538e-200
9.64639e-190
6.29536e-180
3.47775e-173
8.22587e-169
7.45173e-166
5.85474e-164
6.30314e-163
7.74087e-163
4.61348e-164
4.62023e-164
7.74151e-163
6.32212e-163
5.89268e-164
7.51378e-166
8.30833e-169
3.51667e-173
6.41346e-180
5.0258e-189
5.1039e-199
4.50454e-205
2.94297e-194
2.42879e-184
1.86168e-177
5.51497e-173
5.82146e-170
5.20631e-168
6.40523e-167
8.34617e-167
4.71245e-168
4.71941e-168
8.34314e-167
6.4178e-167
5.23394e-168
5.86354e-170
5.56346e-173
1.88051e-177
2.47524e-184
1.59418e-193
1.30917e-203
9.95463e-210
8.91577e-199
9.36381e-189
9.97213e-182
3.697e-177
4.5475e-174
4.66424e-172
6.5489e-171
8.94339e-171
4.76076e-172
4.76767e-172
8.93692e-171
6.5561e-171
4.684e-172
4.57585e-174
3.72536e-177
1.00626e-181
9.54855e-189
5.03555e-198
3.31536e-208
1.91675e-214
2.64239e-203
3.60804e-193
5.3492e-186
2.47748e-181
3.55448e-178
4.21217e-176
6.72243e-175
9.51803e-175
4.75951e-176
4.76614e-176
9.50832e-175
6.7251e-175
4.22595e-176
3.57341e-178
2.49399e-181
5.39231e-186
3.68231e-193
1.58142e-202
8.272e-213
3.05765e-219
7.54631e-208
1.38996e-197
2.87474e-190
1.65947e-185
2.78257e-182
3.83547e-180
6.91444e-179
1.00565e-178
4.71141e-180
4.71753e-180
1.00437e-178
6.91328e-179
3.84471e-180
2.79508e-182
1.66903e-185
2.89516e-190
1.42013e-197
4.93351e-207
2.02984e-217
4.18543e-224
2.05973e-212
5.35609e-202
1.548e-194
1.11104e-189
2.18408e-186
3.52106e-184
7.11419e-183
1.05465e-182
4.62047e-184
4.62588e-184
1.05308e-182
7.10975e-183
3.52687e-184
2.19222e-186
1.11654e-189
1.55762e-194
5.48e-202
1.52871e-211
4.89432e-222
5.68161e-229
5.42331e-217
2.06553e-206
8.35094e-199
7.43651e-194
1.72098e-190
3.2574e-188
7.31178e-187
1.09773e-186
4.49159e-188
4.49613e-188
1.0959e-186
7.30455e-187
3.26062e-188
1.72618e-190
7.4679e-194
8.39598e-199
2.11693e-206
4.71036e-216
1.16272e-226
9.50008e-234
1.41954e-221
7.97564e-211
4.5116e-203
4.97795e-198
1.36303e-194
3.0344e-192
7.4984e-191
1.13402e-190
4.33027e-192
4.33382e-192
1.13193e-190
7.48876e-191
3.03567e-192
1.36625e-194
4.99568e-198
4.5326e-203
8.1907e-211
1.44707e-220
2.74222e-231
2.08867e-238
3.8374e-226
3.08483e-215
2.43974e-207
3.33443e-202
1.08629e-198
2.8434e-196
7.66638e-195
1.16283e-194
4.14225e-196
4.14477e-196
1.16052e-194
7.65466e-195
2.84321e-196
1.08821e-198
3.34432e-202
2.44949e-207
3.17533e-215
4.44809e-225
6.5186e-236
5.28084e-243
1.0967e-230
1.19547e-219
1.31992e-211
2.2367e-206
8.71988e-203
2.67714e-200
7.8093e-199
1.18369e-198
3.93327e-200
3.93475e-200
1.18117e-198
7.79576e-199
2.67586e-200
8.73037e-203
2.24212e-206
1.32442e-211
1.23371e-219
1.37288e-229
1.56291e-240
1.72628e-247
3.33008e-235
4.64195e-224
7.14067e-216
1.50384e-210
7.05457e-207
2.5296e-204
7.92195e-203
1.19634e-202
3.70887e-204
3.70934e-204
1.19364e-202
7.90684e-203
2.52751e-204
7.05948e-207
1.50673e-210
7.1613e-216
4.80418e-224
4.26689e-234
3.80317e-245
9.83584e-252
1.0981e-239
1.80577e-228
3.86151e-220
1.01446e-214
5.75378e-211
2.39594e-208
8.0004e-207
1.20071e-206
3.4742e-208
3.47373e-208
1.19784e-206
7.98391e-207
2.39325e-208
5.75515e-211
1.01593e-214
3.87089e-220
1.87483e-228
1.33941e-238
9.53328e-250
1.38212e-255
4.34747e-244
7.03708e-233
2.08696e-224
6.8731e-219
4.7307e-215
2.27236e-212
8.04183e-211
1.1969e-210
3.23394e-212
3.23264e-212
1.1939e-210
8.02417e-211
2.26924e-212
4.72988e-215
6.88014e-219
2.09119e-224
7.33083e-233
4.27172e-243
2.50839e-254
1.33929e-259
2.16555e-248
2.74777e-237
1.12722e-228
4.68152e-223
3.91926e-219
2.15596e-216
8.04454e-215
1.18522e-214
2.99223e-216
2.99021e-216
1.18211e-214
8.02587e-215
2.15252e-216
3.91716e-219
4.68445e-223
1.12909e-228
2.87161e-237
1.39683e-247
7.1627e-259
8.86233e-264
1.18339e-252
1.07563e-241
6.08593e-233
3.2086e-227
3.2695e-223
2.04458e-220
8.00779e-219
1.16607e-218
2.75265e-220
2.75004e-220
1.16288e-218
7.98828e-219
2.04093e-220
3.2667e-223
3.20941e-227
6.09403e-233
1.12691e-241
4.70967e-252
2.21274e-263
4.50295e-268
6.18283e-257
4.22398e-246
3.28583e-237
2.21425e-231
2.74384e-227
1.93671e-224
7.9317e-223
1.14001e-222
2.5182e-224
2.51513e-224
1.13677e-222
7.9115e-223
1.93291e-224
2.74071e-227
2.21405e-231
3.28921e-237
4.43108e-246
1.62831e-256
7.0811e-268
1.86221e-272
2.93427e-261
1.66452e-250
1.77512e-241
1.53922e-235
2.31408e-231
1.83131e-228
7.81714e-227
1.10768e-226
2.29136e-228
2.28796e-228
1.10441e-226
7.79641e-227
1.82745e-228
2.31086e-231
1.53858e-235
1.77645e-241
1.74554e-250
5.67906e-261
2.23306e-272
6.41208e-277
1.25656e-265
6.57921e-255
9.60302e-246
1.07789e-239
1.9591e-235
1.72776e-232
7.66561e-231
1.06977e-230
2.07408e-232
2.07046e-232
1.06651e-230
7.6445e-231
1.72387e-232
1.95595e-235
1.07714e-239
9.60765e-246
6.88372e-255
1.95894e-265
6.67914e-277
1.85246e-281
4.8861e-270
2.60472e-259
5.20685e-250
7.60262e-244
1.66307e-239
1.62571e-236
7.47913e-235
1.02705e-234
1.86785e-236
1.86413e-236
1.02381e-234
7.45779e-235
1.62184e-236
1.66008e-239
7.59525e-244
5.20803e-250
2.71345e-259
6.57894e-270
1.86092e-281
4.50449e-286
1.73652e-274
1.03062e-263
2.83234e-254
5.39806e-248
1.41408e-243
1.52505e-240
7.26014e-239
9.80278e-239
1.67374e-240
1.67e-240
9.77087e-239
7.23871e-239
1.52123e-240
1.4113e-243
5.39154e-248
2.83228e-254
1.06717e-263
2.13074e-274
4.80214e-286
9.17463e-291
5.65055e-279
4.0644e-268
1.54714e-258
3.85539e-252
1.20313e-247
1.4258e-244
7.01142e-243
9.30234e-243
1.49243e-244
1.48875e-244
9.27115e-243
6.99005e-243
1.42207e-244
1.20059e-247
3.84991e-252
1.54673e-258
4.18075e-268
6.6159e-279
1.14748e-290
4.80845e-294
1.67476e-283
1.59275e-272
8.49373e-263
2.7672e-256
1.02335e-251
1.32811e-248
6.73606e-247
8.77679e-247
1.32429e-248
1.32074e-248
8.74651e-247
6.7149e-247
1.3245e-248
1.02105e-251
2.76273e-256
8.48952e-263
1.62865e-272
1.95204e-283
4.51203e-294
3.88685e-295
4.4955e-288
6.18624e-277
4.68977e-267
1.99382e-260
8.69437e-256
1.23222e-252
6.43737e-251
8.2335e-251
1.16942e-252
1.16604e-252
8.20433e-251
6.41654e-251
1.22874e-252
8.67378e-256
1.99027e-260
4.68639e-267
6.29328e-277
5.36921e-288
3.48077e-295
2.17479e-296
1.13452e-292
2.38051e-281
2.60544e-271
1.44052e-264
7.37274e-260
1.1384e-256
6.11883e-255
7.67953e-255
1.02768e-256
1.02451e-256
7.6516e-255
6.09848e-255
1.13507e-256
7.35447e-260
1.43773e-264
2.603e-271
2.40636e-281
1.37612e-292
1.86156e-296
1.12505e-297
2.82495e-294
9.10586e-286
1.45665e-275
1.04243e-268
6.23588e-264
1.04697e-260
5.7841e-259
7.12148e-259
8.98743e-261
8.95809e-261
7.09494e-259
5.76435e-259
1.04382e-260
6.2198e-264
1.04028e-268
1.45498e-275
9.08778e-286
2.89789e-294
9.49927e-298
6.30069e-299
6.46996e-295
3.4844e-290
8.19425e-280
7.54753e-273
5.25747e-268
9.58269e-265
5.43693e-263
6.56552e-263
7.82149e-265
7.79461e-265
6.54046e-263
5.41789e-263
9.55301e-265
5.24343e-268
7.53107e-273
8.18322e-280
3.39453e-290
6.12562e-295
5.36014e-299
3.86877e-300
1.89628e-295
6.93475e-294
4.63611e-284
5.4621e-277
4.41599e-272
8.7265e-269
5.08116e-267
6.01727e-267
6.77318e-269
6.74883e-269
5.99378e-267
5.06294e-267
8.69876e-269
4.40383e-272
5.44962e-277
4.629e-284
6.84148e-294
1.7641e-295
3.33436e-300
2.51657e-301
5.60136e-296
2.27878e-294
2.63629e-288
3.94746e-281
3.69349e-276
7.90458e-273
4.72063e-271
5.48184e-271
5.83595e-273
5.81411e-273
5.45998e-271
4.70331e-271
7.87884e-273
3.68303e-276
3.93807e-281
2.63179e-288
2.26402e-294
5.20519e-296
2.19268e-301
1.67974e-302
1.60466e-296
1.10413e-294
1.56172e-292
2.84664e-285
3.07479e-280
7.12023e-277
4.35914e-275
4.96375e-275
5.00273e-277
4.98331e-277
4.94354e-275
4.3428e-275
7.09652e-277
3.06586e-280
2.83963e-285
1.55883e-292
1.09619e-294
1.49961e-296
1.47069e-302
1.12593e-303
4.41252e-297
5.56309e-295
3.92659e-294
2.04698e-289
2.5468e-284
6.37652e-281
4.00039e-279
4.46689e-279
4.26611e-281
4.249e-281
4.44834e-279
3.98509e-279
6.35484e-281
2.53923e-284
2.04178e-289
3.92194e-294
5.52148e-295
4.1571e-297
9.82141e-304
7.52381e-305
1.15884e-297
2.78322e-295
2.37593e-294
2.25179e-293
2.09812e-288
5.6761e-285
3.64792e-283
3.99457e-283
3.61856e-285
3.60362e-285
3.97767e-283
3.63369e-283
5.65643e-285
2.09175e-288
2.24775e-293
2.37292e-294
2.76334e-295
1.10035e-297
6.46965e-305
5.06246e-306
2.90259e-298
1.34535e-295
1.56108e-294
4.64961e-294
1.81418e-292
5.02132e-289
3.30499e-287
3.54945e-287
3.05279e-289
3.03985e-289
3.53415e-287
3.29186e-287
5.00361e-289
1.80874e-292
4.64694e-294
1.55887e-294
1.33666e-295
2.77493e-298