/*--------------------------------*- C++ -*----------------------------------*\
| =========                 |                                                 |
| \\      /  F ield         | OpenFOAM: The Open Source CFD Toolbox           |
|  \\    /   O peration     | Version:  2.1.x                                 |
|   \\  /    A nd           | Web:      www.OpenFOAM.org                      |
|    \\/     M anipulation  |                                                 |
\*---------------------------------------------------------------------------*/
FoamFile
{
    version     2.0;
    format      ascii;
    class       surfaceScalarField;
    location    "0.05";
    object      phi;
}
// * * * * * * * * * * * * * * * * * * * * * * * * * * * * * * * * * * * * * //

dimensions      [0 3 -1 0 0 0 0];

internalField   nonuniform List<scalar> 
15580
(
1.04295e-17
2.02135e-10
2.61452e-17
5.79851e-10
3.17517e-17
9.15986e-10
2.94642e-17
1.20359e-09
2.32118e-17
1.44087e-09
1.60869e-17
1.62947e-09
9.91053e-18
1.77295e-09
5.36339e-18
1.87559e-09
2.31292e-18
1.94143e-09
1.42635e-19
1.97353e-09
-1.9845e-18
1.97353e-09
-4.89536e-18
1.94143e-09
-9.18764e-18
1.87559e-09
-1.49571e-17
1.77295e-09
-2.14962e-17
1.62947e-09
-2.70012e-17
1.44087e-09
-2.85728e-17
1.20359e-09
-2.28581e-17
9.15986e-10
-8.8579e-18
5.79851e-10
2.02135e-10
3.14487e-17
2.02135e-10
6.54627e-17
5.79851e-10
7.91262e-17
9.15986e-10
7.49864e-17
1.20359e-09
6.05855e-17
1.44087e-09
4.30417e-17
1.62947e-09
2.71319e-17
1.77295e-09
1.4993e-17
1.87559e-09
6.59731e-18
1.94143e-09
4.8397e-19
1.97353e-09
-5.48502e-18
1.97353e-09
-1.34213e-17
1.94143e-09
-2.47114e-17
1.87559e-09
-3.92715e-17
1.77295e-09
-5.48357e-17
1.62947e-09
-6.65985e-17
1.44087e-09
-6.78259e-17
1.20359e-09
-5.23794e-17
9.15986e-10
-2.15808e-17
5.79851e-10
2.02135e-10
4.18717e-17
2.02135e-10
7.93332e-17
5.79851e-10
9.70716e-17
9.15986e-10
9.46257e-17
1.20359e-09
7.85263e-17
1.44087e-09
5.69812e-17
1.62947e-09
3.64649e-17
1.77295e-09
2.03645e-17
1.87559e-09
9.08814e-18
1.94143e-09
8.92519e-19
1.97353e-09
-7.04225e-18
1.97353e-09
-1.74896e-17
1.94143e-09
-3.20691e-17
1.87559e-09
-5.01678e-17
1.77295e-09
-6.8147e-17
1.62947e-09
-7.93809e-17
1.44087e-09
-7.60289e-17
1.20359e-09
-5.35505e-17
9.15986e-10
-1.80996e-17
5.7985e-10
2.02135e-10
4.16369e-17
2.02135e-10
7.59896e-17
5.7985e-10
9.37892e-17
9.15986e-10
9.31342e-17
1.20359e-09
7.86241e-17
1.44087e-09
5.7753e-17
1.62947e-09
3.7191e-17
1.77295e-09
2.08159e-17
1.87559e-09
9.38631e-18
1.94143e-09
1.24228e-18
1.97353e-09
-6.53887e-18
1.97353e-09
-1.6822e-17
1.94143e-09
-3.11091e-17
1.87559e-09
-4.83859e-17
1.77295e-09
-6.44665e-17
1.62947e-09
-7.24764e-17
1.44087e-09
-6.53202e-17
1.20359e-09
-4.06691e-17
9.15986e-10
-8.38658e-18
5.7985e-10
2.02135e-10
3.53787e-17
2.02135e-10
6.56646e-17
5.7985e-10
8.22247e-17
9.15986e-10
8.28034e-17
1.20359e-09
7.06267e-17
1.44087e-09
5.21147e-17
1.62947e-09
3.34793e-17
1.77295e-09
1.85966e-17
1.87559e-09
8.39894e-18
1.94143e-09
1.40658e-18
1.97353e-09
-5.158e-18
1.97353e-09
-1.40188e-17
1.94143e-09
-2.65034e-17
1.87559e-09
-4.14511e-17
1.77295e-09
-5.47576e-17
1.62947e-09
-6.01804e-17
1.44087e-09
-5.20258e-17
1.20359e-09
-2.97161e-17
9.15986e-10
-3.85888e-18
5.7985e-10
2.02135e-10
2.80095e-17
2.02135e-10
5.32596e-17
5.7985e-10
6.78354e-17
9.15986e-10
6.88368e-17
1.20359e-09
5.87858e-17
1.44087e-09
4.30481e-17
1.62947e-09
2.71211e-17
1.77295e-09
1.46006e-17
1.87559e-09
6.43317e-18
1.94143e-09
1.29052e-18
1.97353e-09
-3.40636e-18
1.97353e-09
-1.01986e-17
1.94143e-09
-2.03053e-17
1.87559e-09
-3.26572e-17
1.77295e-09
-4.36274e-17
1.62947e-09
-4.80303e-17
1.44087e-09
-4.16994e-17
1.20359e-09
-2.51101e-17
9.15986e-10
-5.94933e-18
5.7985e-10
2.02135e-10
2.09063e-17
2.02135e-10
4.11256e-17
5.7985e-10
5.27359e-17
9.15986e-10
5.32713e-17
1.20359e-09
4.48209e-17
1.44087e-09
3.18032e-17
1.62947e-09
1.88956e-17
1.77295e-09
9.23555e-18
1.87559e-09
3.63745e-18
1.94143e-09
8.58175e-19
1.97353e-09
-1.50283e-18
1.97353e-09
-5.82137e-18
1.94143e-09
-1.33008e-17
1.87559e-09
-2.31367e-17
1.77295e-09
-3.23996e-17
1.62947e-09
-3.70554e-17
1.44087e-09
-3.41581e-17
1.20359e-09
-2.43737e-17
9.15986e-10
-1.21417e-17
5.7985e-10
2.02135e-10
1.39443e-17
2.02135e-10
2.92104e-17
5.7985e-10
3.73723e-17
9.15986e-10
3.70571e-17
1.20359e-09
2.984e-17
1.44087e-09
1.93766e-17
1.62947e-09
9.54877e-18
1.77295e-09
2.9803e-18
1.87559e-09
2.45786e-19
1.94143e-09
1.10167e-19
1.97353e-09
3.37162e-19
1.97353e-09
-1.30681e-18
1.94143e-09
-6.0812e-18
1.87559e-09
-1.35595e-17
1.77295e-09
-2.1498e-17
1.62947e-09
-2.68443e-17
1.44087e-09
-2.73732e-17
1.20359e-09
-2.34693e-17
9.15986e-10
-1.59647e-17
5.7985e-10
2.02135e-10
7.43692e-18
2.02135e-10
1.65884e-17
5.7985e-10
2.15953e-17
9.15986e-10
2.05225e-17
1.20359e-09
1.44792e-17
1.44087e-09
6.50349e-18
1.62947e-09
-2.10768e-19
1.77295e-09
-3.68041e-18
1.87559e-09
-3.48009e-18
1.94143e-09
-8.74023e-19
1.97353e-09
2.00841e-18
1.97353e-09
3.03654e-18
1.94143e-09
8.77014e-19
1.87559e-09
-4.29058e-18
1.77295e-09
-1.09483e-17
1.62947e-09
-1.66665e-17
1.44087e-09
-1.94722e-17
1.20359e-09
-1.89933e-17
9.15986e-10
-1.41446e-17
5.7985e-10
2.02135e-10
8.49748e-19
2.02135e-10
3.71903e-18
5.7985e-10
5.73009e-18
9.15986e-10
4.05745e-18
1.20359e-09
-6.74377e-19
1.44087e-09
-6.24951e-18
1.62947e-09
-1.00128e-17
1.77295e-09
-1.03772e-17
1.87559e-09
-7.30494e-18
1.94143e-09
-2.02824e-18
1.97353e-09
3.43087e-18
1.97353e-09
7.03823e-18
1.94143e-09
7.44436e-18
1.87559e-09
4.44272e-18
1.77295e-09
-8.19424e-19
1.62947e-09
-6.37954e-18
1.44087e-09
-1.03376e-17
1.20359e-09
-1.13447e-17
9.15986e-10
-8.12736e-18
5.7985e-10
2.02135e-10
-6.33553e-18
2.02135e-10
-8.74654e-18
5.7985e-10
-9.56647e-18
9.15986e-10
-1.17477e-17
1.20359e-09
-1.52365e-17
1.44087e-09
-1.83198e-17
1.62947e-09
-1.92094e-17
1.77295e-09
-1.67439e-17
1.87559e-09
-1.10073e-17
1.94143e-09
-3.24041e-18
1.97353e-09
4.61213e-18
1.97353e-09
1.05798e-17
1.94143e-09
1.32758e-17
1.87559e-09
1.23504e-17
1.77295e-09
8.56956e-18
1.62947e-09
3.42757e-18
1.44087e-09
-1.24083e-18
1.20359e-09
-3.56347e-18
9.15986e-10
-2.29627e-18
5.7985e-10
2.02135e-10
-1.39833e-17
2.02135e-10
-2.0118e-17
5.7985e-10
-2.35004e-17
9.15986e-10
-2.60179e-17
1.20359e-09
-2.82381e-17
1.44087e-09
-2.91434e-17
1.62947e-09
-2.74787e-17
1.77295e-09
-2.24769e-17
1.87559e-09
-1.43672e-17
1.94143e-09
-4.39084e-18
1.97353e-09
5.57672e-18
1.97353e-09
1.36235e-17
1.94143e-09
1.83441e-17
1.87559e-09
1.92451e-17
1.77295e-09
1.67896e-17
1.62947e-09
1.20797e-17
1.44087e-09
6.49871e-18
1.20359e-09
1.90781e-18
9.15986e-10
-2.56504e-19
5.7985e-10
2.02135e-10
-1.89541e-17
2.02135e-10
-2.82821e-17
5.7985e-10
-3.44545e-17
9.15986e-10
-3.77061e-17
1.20359e-09
-3.90605e-17
1.44087e-09
-3.81932e-17
1.62947e-09
-3.44009e-17
1.77295e-09
-2.72712e-17
1.87559e-09
-1.7178e-17
1.94143e-09
-5.36324e-18
1.97353e-09
6.36596e-18
1.97353e-09
1.616e-17
1.94143e-09
2.26133e-17
1.87559e-09
2.51148e-17
1.77295e-09
2.38611e-17
1.62947e-09
1.95583e-17
1.44087e-09
1.31174e-17
1.20359e-09
5.65395e-18
9.15986e-10
-2.9098e-19
5.7985e-10
2.02135e-10
-1.91889e-17
2.02135e-10
-3.22288e-17
5.7985e-10
-4.13386e-17
9.15986e-10
-4.59591e-17
1.20359e-09
-4.70421e-17
1.44087e-09
-4.49755e-17
1.62947e-09
-3.9609e-17
1.77295e-09
-3.08683e-17
1.87559e-09
-1.92714e-17
1.94143e-09
-6.06301e-18
1.97353e-09
7.01788e-18
1.97353e-09
1.81915e-17
1.94143e-09
2.60798e-17
1.87559e-09
3.0012e-17
1.77295e-09
3.00314e-17
1.62947e-09
2.66324e-17
1.44087e-09
2.04441e-17
1.20359e-09
1.1754e-17
9.15986e-10
2.1937e-18
5.7985e-10
2.02135e-10
-1.7528e-17
2.02135e-10
-3.33416e-17
5.7985e-10
-4.4859e-17
9.15986e-10
-5.06669e-17
1.20359e-09
-5.18679e-17
1.44087e-09
-4.9187e-17
1.62947e-09
-4.28635e-17
1.77295e-09
-3.30998e-17
1.87559e-09
-2.05413e-17
1.94143e-09
-6.43441e-18
1.97353e-09
7.54635e-18
1.97353e-09
1.96984e-17
1.94143e-09
2.87034e-17
1.87559e-09
3.39154e-17
1.77295e-09
3.54009e-17
1.62947e-09
3.37437e-17
1.44087e-09
2.96196e-17
1.20359e-09
2.26996e-17
9.15986e-10
1.16024e-17
5.7985e-10
2.02135e-10
-1.9459e-17
2.02135e-10
-3.76224e-17
5.7985e-10
-4.70336e-17
9.15986e-10
-5.2499e-17
1.20359e-09
-5.36732e-17
1.44087e-09
-5.07739e-17
1.62947e-09
-4.40803e-17
1.77295e-09
-3.38987e-17
1.87559e-09
-2.09444e-17
1.94143e-09
-6.4601e-18
1.97353e-09
7.93845e-18
1.97353e-09
2.06272e-17
1.94143e-09
3.03737e-17
1.87559e-09
3.66292e-17
1.77295e-09
3.96271e-17
1.62947e-09
4.02574e-17
1.44087e-09
3.9387e-17
1.20359e-09
3.62081e-17
9.15986e-10
2.71279e-17
5.7985e-10
2.02135e-10
-2.44269e-17
2.02135e-10
-3.87105e-17
5.7985e-10
-4.68853e-17
9.15986e-10
-5.14096e-17
1.20359e-09
-5.25359e-17
1.44087e-09
-4.98198e-17
1.62947e-09
-4.33075e-17
1.77295e-09
-3.32849e-17
1.87559e-09
-2.0486e-17
1.94143e-09
-6.14331e-18
1.97353e-09
8.17978e-18
1.97353e-09
2.09316e-17
1.94143e-09
3.09696e-17
1.87559e-09
3.78629e-17
1.77295e-09
4.20365e-17
1.62947e-09
4.46613e-17
1.44087e-09
4.67769e-17
1.20359e-09
4.78991e-17
9.15986e-10
4.05974e-17
5.7985e-10
2.02135e-10
-2.88426e-17
2.02135e-10
-3.92776e-17
5.7985e-10
-4.47612e-17
9.15986e-10
-4.80342e-17
1.20359e-09
-4.89644e-17
1.44087e-09
-4.66807e-17
1.62947e-09
-4.07701e-17
1.77295e-09
-3.13822e-17
1.87559e-09
-1.92219e-17
1.94143e-09
-5.49506e-18
1.97353e-09
8.28662e-18
1.97353e-09
2.06323e-17
1.94143e-09
3.04635e-17
1.87559e-09
3.74031e-17
1.77295e-09
4.19105e-17
1.62947e-09
4.51094e-17
1.44087e-09
4.78808e-17
1.20359e-09
4.9838e-17
9.15986e-10
4.29964e-17
5.7985e-10
2.02135e-10
-2.9458e-17
2.02135e-10
-3.75195e-17
5.7985e-10
-4.05351e-17
9.15986e-10
-4.28195e-17
1.20359e-09
-4.35722e-17
1.44087e-09
-4.18462e-17
1.62947e-09
-3.68129e-17
1.77295e-09
-2.84099e-17
1.87559e-09
-1.72635e-17
1.94143e-09
-4.53563e-18
1.97353e-09
8.31971e-18
1.97353e-09
1.98605e-17
1.94143e-09
2.90238e-17
1.87559e-09
3.53599e-17
1.77295e-09
3.90939e-17
1.62947e-09
4.08575e-17
1.44087e-09
4.09632e-17
1.20359e-09
3.88424e-17
9.15986e-10
3.02549e-17
5.7985e-10
2.02135e-10
-2.34854e-17
2.02135e-10
-2.97961e-17
5.7985e-10
-3.25392e-17
9.15986e-10
-3.52312e-17
1.20359e-09
-3.65864e-17
1.44087e-09
-3.57527e-17
1.62947e-09
-3.18319e-17
1.77295e-09
-2.46525e-17
1.87559e-09
-1.47747e-17
1.94143e-09
-3.30495e-18
1.97353e-09
8.37043e-18
1.97353e-09
1.8852e-17
1.94143e-09
2.70456e-17
1.87559e-09
3.23111e-17
1.77295e-09
3.44228e-17
1.62947e-09
3.32219e-17
1.44087e-09
2.8223e-17
1.20359e-09
1.96781e-17
9.15986e-10
7.83463e-18
5.7985e-10
2.02135e-10
-8.38715e-18
2.02135e-10
-1.37446e-17
5.7985e-10
-1.92649e-17
9.15986e-10
-2.46448e-17
1.20359e-09
-2.80735e-17
1.44087e-09
-2.87918e-17
1.62947e-09
-2.62537e-17
1.77295e-09
-2.04493e-17
1.87559e-09
-1.19701e-17
1.94143e-09
-1.87563e-18
1.97353e-09
8.52391e-18
1.97353e-09
1.78814e-17
1.94143e-09
2.50591e-17
1.87559e-09
2.91974e-17
1.77295e-09
2.95856e-17
1.62947e-09
2.52747e-17
1.44087e-09
1.50483e-17
1.20359e-09
-1.56507e-19
9.15986e-10
-1.12968e-17
5.7985e-10
2.02135e-10
1.45122e-17
2.02135e-10
9.06917e-18
5.7985e-10
-2.20546e-18
9.15986e-10
-1.20622e-17
1.20359e-09
-1.87541e-17
1.44087e-09
-2.15885e-17
1.62947e-09
-2.06045e-17
1.77295e-09
-1.62024e-17
1.87559e-09
-9.11532e-18
1.94143e-09
-3.77042e-19
1.97353e-09
8.80277e-18
1.97353e-09
1.71465e-17
1.94143e-09
2.35225e-17
1.87559e-09
2.69454e-17
1.77295e-09
2.64054e-17
1.62947e-09
2.0555e-17
1.44087e-09
8.33551e-18
1.20359e-09
-8.19276e-18
9.15986e-10
-1.89456e-17
5.7985e-10
2.02135e-10
3.45109e-17
2.02135e-10
2.87823e-17
5.7985e-10
1.27821e-17
9.15986e-10
-1.04232e-18
1.20359e-09
-1.05878e-17
1.44087e-09
-1.52529e-17
1.62947e-09
-1.55799e-17
1.77295e-09
-1.23763e-17
1.87559e-09
-6.51612e-18
1.94143e-09
1.01441e-18
1.97353e-09
9.11095e-18
1.97353e-09
1.66348e-17
1.94143e-09
2.25432e-17
1.87559e-09
2.58959e-17
1.77295e-09
2.57222e-17
1.62947e-09
2.09018e-17
1.44087e-09
1.10335e-17
1.20359e-09
-2.02239e-18
9.15986e-10
-1.0317e-17
5.7985e-10
2.02135e-10
3.73874e-17
2.02135e-10
3.32434e-17
5.7985e-10
1.76769e-17
9.15986e-10
3.64748e-18
1.20359e-09
-6.09577e-18
1.44087e-09
-1.10868e-17
1.62947e-09
-1.19046e-17
1.77295e-09
-9.42347e-18
1.87559e-09
-4.48913e-18
1.94143e-09
2.03251e-18
1.97353e-09
9.20207e-18
1.97353e-09
1.60515e-17
1.94143e-09
2.17107e-17
1.87559e-09
2.54414e-17
1.77295e-09
2.6627e-17
1.62947e-09
2.49375e-17
1.44087e-09
2.11091e-17
1.20359e-09
1.57882e-17
9.15986e-10
9.83574e-18
5.79851e-10
2.02135e-10
1.88678e-17
2.02135e-10
1.76379e-17
5.7985e-10
8.89223e-18
9.15986e-10
8.63083e-20
1.20359e-09
-6.44407e-18
1.44087e-09
-9.74687e-18
1.62947e-09
-9.96722e-18
1.77295e-09
-7.61093e-18
1.87559e-09
-3.25819e-18
1.94143e-09
2.44534e-18
1.97353e-09
8.75724e-18
1.97353e-09
1.49042e-17
1.94143e-09
2.02087e-17
1.87559e-09
2.41893e-17
1.77295e-09
2.67098e-17
1.62947e-09
2.83309e-17
1.44087e-09
3.05458e-17
1.20359e-09
3.2837e-17
9.15986e-10
3.0383e-17
5.79851e-10
2.02135e-10
-1.28398e-17
2.02135e-10
-1.15341e-17
5.7985e-10
-9.68415e-18
9.15986e-10
-9.81191e-18
1.20359e-09
-1.05767e-17
1.44087e-09
-1.0732e-17
1.62947e-09
-9.54538e-18
1.77295e-09
-6.86604e-18
1.87559e-09
-2.85027e-18
1.94143e-09
2.13207e-18
1.97353e-09
7.53255e-18
1.97353e-09
1.27445e-17
1.94143e-09
1.72283e-17
1.87559e-09
2.06779e-17
1.77295e-09
2.32631e-17
1.62947e-09
2.59011e-17
1.44087e-09
2.98055e-17
1.20359e-09
3.36587e-17
9.15986e-10
3.08891e-17
5.79851e-10
2.02135e-10
-4.03517e-17
2.02135e-10
-3.90784e-17
5.7985e-10
-2.85294e-17
9.15986e-10
-2.04157e-17
1.20359e-09
-1.55622e-17
1.44087e-09
-1.24925e-17
1.62947e-09
-9.81156e-18
1.77295e-09
-6.74512e-18
1.87559e-09
-3.03496e-18
1.94143e-09
1.18981e-18
1.97353e-09
5.52334e-18
1.97353e-09
9.45359e-18
1.94143e-09
1.24908e-17
1.87559e-09
1.43793e-17
1.77295e-09
1.53151e-17
1.62947e-09
1.59533e-17
1.44087e-09
1.65402e-17
1.20359e-09
1.56071e-17
9.15986e-10
6.74522e-18
5.79851e-10
2.02135e-10
-4.95278e-17
2.02135e-10
-5.06586e-17
5.7985e-10
-3.75171e-17
9.15986e-10
-2.5723e-17
1.20359e-09
-1.7861e-17
1.44087e-09
-1.30153e-17
1.62947e-09
-9.61663e-18
1.77295e-09
-6.56497e-18
1.87559e-09
-3.37443e-18
1.94143e-09
-6.27829e-20
1.97353e-09
3.01568e-18
1.97353e-09
5.35634e-18
1.94143e-09
6.47192e-18
1.87559e-09
6.12626e-18
1.77295e-09
4.47629e-18
1.62947e-09
1.93277e-18
1.44087e-09
-1.43945e-18
1.20359e-09
-6.00257e-18
9.15986e-10
-9.22117e-18
5.79851e-10
2.02135e-10
-3.62313e-17
2.02135e-10
-3.98976e-17
5.79851e-10
-3.07903e-17
9.15986e-10
-2.14461e-17
1.20359e-09
-1.47835e-17
1.44087e-09
-1.06638e-17
1.62947e-09
-7.94808e-18
1.77295e-09
-5.66117e-18
1.87559e-09
-3.38144e-18
1.94143e-09
-1.19596e-18
1.97353e-09
4.72224e-19
1.97353e-09
1.07704e-18
1.94143e-09
1.57491e-19
1.87559e-09
-2.44785e-18
1.77295e-09
-6.58398e-18
1.62947e-09
-1.19768e-17
1.44087e-09
-1.85405e-17
1.20359e-09
-2.51299e-17
9.15986e-10
-2.60706e-17
5.79851e-10
2.02135e-10
-7.54894e-18
2.02135e-10
-9.95122e-18
5.79851e-10
-9.09249e-18
9.15986e-10
-7.33926e-18
1.20359e-09
-5.85674e-18
1.44087e-09
-4.98618e-18
1.62947e-09
-4.41126e-18
1.77295e-09
-3.6853e-18
1.87559e-09
-2.72894e-18
1.94143e-09
-1.86322e-18
1.97353e-09
-1.66681e-18
1.97353e-09
-2.72295e-18
1.94143e-09
-5.39453e-18
1.87559e-09
-9.70334e-18
1.77295e-09
-1.53325e-17
1.62947e-09
-2.16999e-17
1.44087e-09
-2.76261e-17
1.20359e-09
-2.96967e-17
9.15986e-10
-2.08763e-17
5.79851e-10
2.02135e-10
4.09565e-17
2.02135e-10
3.42183e-17
5.79851e-10
2.14459e-17
9.15986e-10
1.2326e-17
1.20359e-09
6.54857e-18
1.44087e-09
2.8421e-18
1.62947e-09
4.92942e-19
1.77295e-09
-8.06838e-19
1.87559e-09
-1.42227e-18
1.94143e-09
-1.96711e-18
1.97353e-09
-3.17721e-18
1.97353e-09
-5.6367e-18
1.94143e-09
-9.56891e-18
1.87559e-09
-1.48328e-17
1.77295e-09
-2.09488e-17
1.62947e-09
-2.69191e-17
1.44087e-09
-3.06427e-17
1.20359e-09
-2.95881e-17
9.15986e-10
-1.37035e-17
5.7985e-10
2.02135e-10
6.04489e-17
2.02135e-10
5.91048e-17
5.79851e-10
4.24985e-17
9.15986e-10
2.77026e-17
1.20359e-09
1.72412e-17
1.44087e-09
1.00976e-17
1.62947e-09
5.30747e-18
1.77295e-09
2.22923e-18
1.87559e-09
1.75702e-19
1.94143e-09
-1.66118e-18
1.97353e-09
-4.04859e-18
1.97353e-09
-7.49612e-18
1.94143e-09
-1.21069e-17
1.87559e-09
-1.76551e-17
1.77295e-09
-2.35238e-17
1.62947e-09
-2.82431e-17
1.44087e-09
-2.88055e-17
1.20359e-09
-2.25585e-17
9.15986e-10
-4.41648e-18
5.7985e-10
2.02135e-10
5.26562e-17
2.02135e-10
5.68293e-17
5.79851e-10
4.55461e-17
9.15986e-10
3.27692e-17
1.20359e-09
2.24007e-17
1.44087e-09
1.45135e-17
1.62947e-09
8.74405e-18
1.77295e-09
4.64645e-18
1.87559e-09
1.58809e-18
1.94143e-09
-1.18193e-18
1.97353e-09
-4.32853e-18
1.97353e-09
-8.24765e-18
1.94143e-09
-1.30138e-17
1.87559e-09
-1.84619e-17
1.77295e-09
-2.40056e-17
1.62947e-09
-2.81319e-17
1.44087e-09
-2.87215e-17
1.20359e-09
-2.53489e-17
9.15986e-10
-2.19888e-17
5.7985e-10
2.02135e-10
1.45981e-17
2.02135e-10
3.0807e-17
5.7985e-10
3.21246e-17
9.15986e-10
2.77219e-17
1.20359e-09
2.1465e-17
1.44087e-09
1.53682e-17
1.62947e-09
1.01586e-17
1.77295e-09
5.98347e-18
1.87559e-09
2.55493e-18
1.94143e-09
-6.19477e-19
1.97353e-09
-3.99007e-18
1.97353e-09
-7.83943e-18
1.94143e-09
-1.23169e-17
1.87559e-09
-1.74096e-17
1.77295e-09
-2.26629e-17
1.62947e-09
-2.68276e-17
1.44087e-09
-2.88376e-17
1.20359e-09
-2.83551e-17
9.15986e-10
-2.66119e-17
5.7985e-10
2.02135e-10
-7.73204e-18
2.02135e-10
5.57555e-18
5.7985e-10
1.58359e-17
9.15986e-10
1.88283e-17
1.20359e-09
1.712e-17
1.44087e-09
1.3664e-17
1.62947e-09
9.84333e-18
1.77295e-09
6.28398e-18
1.87559e-09
3.08771e-18
1.94143e-09
8.35135e-20
1.97353e-09
-2.94801e-18
1.97353e-09
-6.22701e-18
1.94143e-09
-1.00021e-17
1.87559e-09
-1.43937e-17
1.77295e-09
-1.91219e-17
1.62947e-09
-2.35083e-17
1.44087e-09
-2.78682e-17
1.20359e-09
-3.08621e-17
9.15986e-10
-3.01056e-17
5.7985e-10
2.02135e-10
-1.89404e-17
2.02135e-10
-8.9099e-18
5.7985e-10
4.36392e-18
9.15986e-10
1.10132e-17
1.20359e-09
1.23189e-17
1.44087e-09
1.09792e-17
1.62947e-09
8.58082e-18
1.77295e-09
5.93968e-18
1.87559e-09
3.40746e-18
1.94143e-09
1.05911e-18
1.97353e-09
-1.16897e-18
1.97353e-09
-3.46424e-18
1.94143e-09
-6.09884e-18
1.87559e-09
-9.19264e-18
1.77295e-09
-1.25054e-17
1.62947e-09
-1.5755e-17
1.44087e-09
-1.94389e-17
1.20359e-09
-2.05238e-17
9.15986e-10
-1.4996e-17
5.7985e-10
2.02135e-10
-1.3229e-17
2.02135e-10
-7.82669e-18
5.7985e-10
1.54681e-18
9.15986e-10
7.21309e-18
1.20359e-09
9.01867e-18
1.44087e-09
8.56465e-18
1.62947e-09
7.12994e-18
1.77295e-09
5.39345e-18
1.87559e-09
3.74088e-18
1.94143e-09
2.34678e-18
1.97353e-09
1.21219e-18
1.97353e-09
1.77013e-19
1.94143e-09
-9.42112e-19
1.87559e-09
-2.14593e-18
1.77295e-09
-3.20239e-18
1.62947e-09
-4.28817e-18
1.44087e-09
-6.03599e-18
1.20359e-09
-6.50419e-18
9.15986e-10
-5.43074e-18
5.7985e-10
2.02135e-10
3.75531e-18
2.02135e-10
4.06113e-18
5.7985e-10
5.69838e-18
9.15986e-10
7.01849e-18
1.20359e-09
7.33634e-18
1.44087e-09
6.77047e-18
1.62947e-09
5.83767e-18
1.77295e-09
4.88752e-18
1.87559e-09
4.17256e-18
1.94143e-09
3.8434e-18
1.97353e-09
3.90449e-18
1.97353e-09
4.25985e-18
1.94143e-09
4.86521e-18
1.87559e-09
5.88605e-18
1.77295e-09
7.57446e-18
1.62947e-09
9.49106e-18
1.44087e-09
1.08552e-17
1.20359e-09
1.14063e-17
9.15986e-10
9.28257e-18
5.7985e-10
2.02135e-10
1.93262e-17
2.02135e-10
1.56851e-17
5.7985e-10
1.0306e-17
9.15986e-10
7.23517e-18
1.20359e-09
5.84167e-18
1.44087e-09
5.0418e-18
1.62947e-09
4.55772e-18
1.77295e-09
4.38555e-18
1.87559e-09
4.60995e-18
1.94143e-09
5.31933e-18
1.97353e-09
6.51613e-18
1.97353e-09
8.18504e-18
1.94143e-09
1.04504e-17
1.87559e-09
1.36089e-17
1.77295e-09
1.78299e-17
1.62947e-09
2.25604e-17
1.44087e-09
2.72107e-17
1.20359e-09
2.91881e-17
9.15986e-10
2.42052e-17
5.7985e-10
2.02135e-10
2.2852e-17
2.02135e-10
1.68627e-17
5.7985e-10
8.7767e-18
9.15986e-10
4.36418e-18
1.20359e-09
2.75855e-18
1.44087e-09
2.53534e-18
1.62947e-09
2.92757e-18
1.77295e-09
3.70611e-18
1.87559e-09
4.87934e-18
1.94143e-09
6.51997e-18
1.97353e-09
8.66571e-18
1.97353e-09
1.13956e-17
1.94143e-09
1.49531e-17
1.87559e-09
1.96552e-17
1.77295e-09
2.55147e-17
1.62947e-09
3.20296e-17
1.44087e-09
3.84889e-17
1.20359e-09
4.09698e-17
9.15986e-10
3.26766e-17
5.7985e-10
2.02135e-10
1.02507e-17
2.02135e-10
3.655e-18
5.7985e-10
-2.03447e-18
9.15986e-10
-3.59526e-18
1.20359e-09
-2.87765e-18
1.44087e-09
-1.17849e-18
1.62947e-09
7.61616e-19
1.77295e-09
2.75051e-18
1.87559e-09
4.87399e-18
1.94143e-09
7.28009e-18
1.97353e-09
1.00882e-17
1.97353e-09
1.34679e-17
1.94143e-09
1.77004e-17
1.87559e-09
2.30041e-17
1.77295e-09
2.92164e-17
1.62947e-09
3.59155e-17
1.44087e-09
4.19963e-17
1.20359e-09
4.3289e-17
9.15986e-10
3.26557e-17
5.7985e-10
2.02135e-10
-1.49519e-17
2.02135e-10
-2.03106e-17
5.7985e-10
-1.93941e-17
9.15986e-10
-1.52885e-17
1.20359e-09
-1.02733e-17
1.44087e-09
-5.62973e-18
1.62947e-09
-1.67881e-18
1.77295e-09
1.66351e-18
1.87559e-09
4.65605e-18
1.94143e-09
7.59202e-18
1.97353e-09
1.07e-17
1.97353e-09
1.42184e-17
1.94143e-09
1.83878e-17
1.87559e-09
2.32725e-17
1.77295e-09
2.86264e-17
1.62947e-09
3.41003e-17
1.44087e-09
3.82744e-17
1.20359e-09
3.76826e-17
9.15986e-10
2.64058e-17
5.7985e-10
2.02135e-10
-3.76208e-17
2.02135e-10
-4.34537e-17
5.7985e-10
-3.69758e-17
9.15986e-10
-2.67892e-17
1.20359e-09
-1.71897e-17
1.44087e-09
-9.48658e-18
1.62947e-09
-3.60854e-18
1.77295e-09
8.79335e-19
1.87559e-09
4.47677e-18
1.94143e-09
7.60627e-18
1.97353e-09
1.05931e-17
1.97353e-09
1.37011e-17
1.94143e-09
1.70787e-17
1.87559e-09
2.06727e-17
1.77295e-09
2.43163e-17
1.62947e-09
2.78071e-17
1.44087e-09
3.00248e-17
1.20359e-09
2.89946e-17
9.15986e-10
2.00263e-17
5.79851e-10
2.02135e-10
-5.4776e-17
2.02135e-10
-6.04422e-17
5.7985e-10
-4.83807e-17
9.15986e-10
-3.35062e-17
1.20359e-09
-2.06444e-17
1.44087e-09
-1.09411e-17
1.62947e-09
-3.96514e-18
1.77295e-09
1.02871e-18
1.87559e-09
4.71517e-18
1.94143e-09
7.58077e-18
1.97353e-09
9.98461e-18
1.97353e-09
1.21471e-17
1.94143e-09
1.40974e-17
1.87559e-09
1.57335e-17
1.77295e-09
1.70588e-17
1.62947e-09
1.81146e-17
1.44087e-09
1.87507e-17
1.20359e-09
1.9339e-17
9.15986e-10
1.6349e-17
5.79851e-10
2.02135e-10
-6.23668e-17
2.02135e-10
-6.30835e-17
5.7985e-10
-4.68323e-17
9.15986e-10
-3.06308e-17
1.20359e-09
-1.76316e-17
1.44087e-09
-8.22226e-18
1.62947e-09
-1.73313e-18
1.77295e-09
2.71754e-18
1.87559e-09
5.7478e-18
1.94143e-09
7.79807e-18
1.97353e-09
9.15529e-18
1.97353e-09
9.91215e-18
1.94143e-09
9.95413e-18
1.87559e-09
9.13489e-18
1.77295e-09
7.51058e-18
1.62947e-09
5.20967e-18
1.44087e-09
3.05839e-18
1.20359e-09
3.80187e-18
9.15986e-10
6.78929e-18
5.79851e-10
2.02135e-10
-3.95255e-17
2.02136e-10
-3.67849e-17
5.7985e-10
-2.49302e-17
9.15986e-10
-1.45752e-17
1.20359e-09
-6.33282e-18
1.44087e-09
-4.07966e-19
1.62947e-09
3.64246e-18
1.77295e-09
6.24817e-18
1.87559e-09
7.77898e-18
1.94143e-09
8.46327e-18
1.97353e-09
8.39109e-18
1.97353e-09
7.45578e-18
1.94143e-09
5.38662e-18
1.87559e-09
1.94616e-18
1.77295e-09
-3.07099e-18
1.62947e-09
-9.95486e-18
1.44087e-09
-1.81378e-17
1.20359e-09
-2.54561e-17
9.15986e-10
-2.60847e-17
5.79851e-10
2.02135e-10
2.76112e-17
2.02135e-10
2.06702e-17
5.7985e-10
1.51169e-17
9.15986e-10
1.2802e-17
1.20359e-09
1.20218e-17
1.44087e-09
1.18262e-17
1.62947e-09
1.16697e-17
1.77295e-09
1.13308e-17
1.87559e-09
1.06808e-17
1.94143e-09
9.60188e-18
1.97353e-09
7.90759e-18
1.97353e-09
5.27973e-18
1.94143e-09
1.34386e-18
1.87559e-09
-4.21599e-18
1.77295e-09
-1.18442e-17
1.62947e-09
-2.1995e-17
1.44087e-09
-3.38724e-17
1.20359e-09
-4.39689e-17
9.15986e-10
-4.07013e-17
5.79851e-10
2.02135e-10
5.41943e-17
2.02135e-10
6.17934e-17
5.7985e-10
5.25768e-17
9.15986e-10
4.12316e-17
1.20359e-09
3.21333e-17
1.44087e-09
2.55252e-17
1.62947e-09
2.07206e-17
1.77295e-09
1.70416e-17
1.87559e-09
1.39518e-17
1.94143e-09
1.10003e-17
1.97353e-09
7.74013e-18
1.97353e-09
3.69989e-18
1.94143e-09
-1.50269e-18
1.87559e-09
-8.19258e-18
1.77295e-09
-1.67199e-17
1.62947e-09
-2.72511e-17
1.44087e-09
-3.86954e-17
1.20359e-09
-4.7714e-17
9.15986e-10
-4.35068e-17
5.7985e-10
2.02135e-10
7.90415e-17
2.02135e-10
9.33995e-17
5.7985e-10
8.12312e-17
9.15986e-10
6.4448e-17
1.20359e-09
4.94208e-17
1.44087e-09
3.76768e-17
1.62947e-09
2.88678e-17
1.77295e-09
2.21849e-17
1.87559e-09
1.68705e-17
1.94143e-09
1.22485e-17
1.97353e-09
7.69545e-18
1.97353e-09
2.67606e-18
1.94143e-09
-3.11561e-18
1.87559e-09
-9.80904e-18
1.77295e-09
-1.72872e-17
1.62947e-09
-2.47684e-17
1.44087e-09
-3.02493e-17
1.20359e-09
-3.08431e-17
9.15986e-10
-2.02615e-17
5.7985e-10
2.02135e-10
8.93211e-17
2.02135e-10
1.04573e-16
5.7985e-10
9.44618e-17
9.15986e-10
7.72928e-17
1.20359e-09
6.01966e-17
1.44087e-09
4.57734e-17
1.62947e-09
3.4416e-17
1.77295e-09
2.56369e-17
1.87559e-09
1.87024e-17
1.94143e-09
1.28635e-17
1.97353e-09
7.42692e-18
1.97353e-09
1.86709e-18
1.94143e-09
-4.01682e-18
1.87559e-09
-1.00966e-17
1.77295e-09
-1.56991e-17
1.62947e-09
-1.90965e-17
1.44087e-09
-1.75463e-17
1.20359e-09
-8.70663e-18
9.15986e-10
6.23068e-18
5.7985e-10
2.02135e-10
4.94641e-17
2.02135e-10
8.41708e-17
5.7985e-10
8.81184e-17
9.15986e-10
7.74272e-17
1.20359e-09
6.26337e-17
1.44087e-09
4.83291e-17
1.62947e-09
3.62529e-17
1.77295e-09
2.65938e-17
1.87559e-09
1.88848e-17
1.94143e-09
1.24494e-17
1.97353e-09
6.61266e-18
1.97353e-09
8.87109e-19
1.94143e-09
-4.8863e-18
1.87559e-09
-1.04545e-17
1.77295e-09
-1.4894e-17
1.62947e-09
-1.62144e-17
1.44087e-09
-1.18946e-17
1.20359e-09
2.74489e-19
9.15986e-10
1.33208e-17
5.7985e-10
2.02135e-10
4.35364e-17
2.02135e-10
7.00205e-17
5.7985e-10
7.63899e-17
9.15986e-10
7.0154e-17
1.20359e-09
5.82016e-17
1.44087e-09
4.54871e-17
1.62947e-09
3.41247e-17
1.77295e-09
2.47438e-17
1.87559e-09
1.71602e-17
1.94143e-09
1.08246e-17
1.97353e-09
5.11974e-18
1.97353e-09
-4.22033e-19
1.94143e-09
-6.01869e-18
1.87559e-09
-1.15173e-17
1.77295e-09
-1.62239e-17
1.62947e-09
-1.88036e-17
1.44087e-09
-1.74994e-17
1.20359e-09
-1.30176e-17
9.15986e-10
-3.62174e-18
5.7985e-10
2.02135e-10
3.49323e-17
2.02135e-10
5.19515e-17
5.7985e-10
5.89758e-17
9.15986e-10
5.64568e-17
1.20359e-09
4.80401e-17
1.44087e-09
3.78997e-17
1.62947e-09
2.83211e-17
1.77295e-09
2.0206e-17
1.87559e-09
1.35884e-17
1.94143e-09
8.05382e-18
1.97353e-09
3.05624e-18
1.97353e-09
-1.87566e-18
1.94143e-09
-7.0717e-18
1.87559e-09
-1.25818e-17
1.77295e-09
-1.81522e-17
1.62947e-09
-2.33556e-17
1.44087e-09
-2.72735e-17
1.20359e-09
-3.0924e-17
9.15986e-10
-3.10176e-17
5.7985e-10
2.02135e-10
6.01054e-18
2.02135e-10
2.52217e-17
5.7985e-10
3.59225e-17
9.15986e-10
3.76267e-17
1.20359e-09
3.34523e-17
1.44087e-09
2.65728e-17
1.62947e-09
1.95411e-17
1.77295e-09
1.34582e-17
1.87559e-09
8.51141e-18
1.94143e-09
4.41561e-18
1.97353e-09
6.98066e-19
1.97353e-09
-3.09692e-18
1.94143e-09
-7.37218e-18
1.87559e-09
-1.23198e-17
1.77295e-09
-1.7966e-17
1.62947e-09
-2.42177e-17
1.44087e-09
-2.99651e-17
1.20359e-09
-3.46068e-17
9.15986e-10
-3.30802e-17
5.7985e-10
2.02135e-10
4.81695e-18
2.02135e-10
1.05281e-17
5.7985e-10
1.68491e-17
9.15986e-10
1.84613e-17
1.20359e-09
1.68091e-17
1.44087e-09
1.29618e-17
1.62947e-09
8.80001e-18
1.77295e-09
5.23347e-18
1.87559e-09
2.47284e-18
1.94143e-09
3.24774e-19
1.97353e-09
-1.59313e-18
1.97353e-09
-3.7141e-18
1.94143e-09
-6.41256e-18
1.87559e-09
-9.94077e-18
1.77295e-09
-1.44038e-17
1.62947e-09
-1.96968e-17
1.44087e-09
-2.4347e-17
1.20359e-09
-2.60996e-17
9.15986e-10
-2.33834e-17
5.7985e-10
2.02135e-10
1.06663e-17
2.02135e-10
3.80489e-18
5.7985e-10
-2.42849e-19
9.15986e-10
-4.37688e-19
1.20359e-09
-8.42949e-19
1.44087e-09
-1.84109e-18
1.62947e-09
-2.9757e-18
1.77295e-09
-3.72774e-18
1.87559e-09
-3.95665e-18
1.94143e-09
-3.79674e-18
1.97353e-09
-3.53856e-18
1.97353e-09
-3.50824e-18
1.94143e-09
-4.05068e-18
1.87559e-09
-5.51746e-18
1.77295e-09
-8.14613e-18
1.62947e-09
-1.1222e-17
1.44087e-09
-1.32783e-17
1.20359e-09
-9.44888e-18
9.15986e-10
-1.60003e-19
5.7985e-10
2.02135e-10
2.80563e-18
2.02135e-10
-1.36312e-17
5.7985e-10
-2.18367e-17
9.15986e-10
-2.1797e-17
1.20359e-09
-1.98695e-17
1.44087e-09
-1.74964e-17
1.62947e-09
-1.52163e-17
1.77295e-09
-1.28749e-17
1.87559e-09
-1.03458e-17
1.94143e-09
-7.66163e-18
1.97353e-09
-4.94417e-18
1.97353e-09
-2.38885e-18
1.94143e-09
-3.58185e-19
1.87559e-09
5.14288e-19
1.77295e-09
-3.99917e-19
1.62947e-09
-2.25871e-18
1.44087e-09
-3.37293e-18
1.20359e-09
-1.26425e-18
9.15986e-10
2.01045e-18
5.7985e-10
2.02135e-10
-2.11975e-17
2.02135e-10
-4.37557e-17
5.7985e-10
-4.97299e-17
9.15986e-10
-4.5717e-17
1.20359e-09
-3.96476e-17
1.44087e-09
-3.33072e-17
1.62947e-09
-2.73561e-17
1.77295e-09
-2.17793e-17
1.87559e-09
-1.63913e-17
1.94143e-09
-1.1059e-17
1.97353e-09
-5.68742e-18
1.97353e-09
-3.21027e-19
1.94143e-09
4.46413e-18
1.87559e-09
7.58788e-18
1.77295e-09
8.1764e-18
1.62947e-09
7.37219e-18
1.44087e-09
6.17836e-18
1.20359e-09
3.32002e-18
9.15986e-10
-1.06253e-18
5.7985e-10
2.02135e-10
-5.6193e-17
2.02135e-10
-7.62741e-17
5.7985e-10
-7.71792e-17
9.15986e-10
-6.86354e-17
1.20359e-09
-5.80525e-17
1.44087e-09
-4.78474e-17
1.62947e-09
-3.84623e-17
1.77295e-09
-2.98365e-17
1.87559e-09
-2.16969e-17
1.94143e-09
-1.37523e-17
1.97353e-09
-5.65822e-18
1.97353e-09
2.63545e-18
1.94143e-09
1.03548e-17
1.87559e-09
1.57405e-17
1.77295e-09
1.82819e-17
1.62947e-09
1.9677e-17
1.44087e-09
1.91874e-17
1.20359e-09
1.4167e-17
9.15986e-10
3.8029e-18
5.7985e-10
2.02135e-10
-7.95152e-17
2.02135e-10
-9.82269e-17
5.7985e-10
-9.53561e-17
9.15986e-10
-8.46121e-17
1.20359e-09
-7.18118e-17
1.44087e-09
-5.92437e-17
1.62947e-09
-4.73935e-17
1.77295e-09
-3.62916e-17
1.87559e-09
-2.57541e-17
1.94143e-09
-1.5458e-17
1.97353e-09
-4.7944e-18
1.97353e-09
6.32506e-18
1.94143e-09
1.63785e-17
1.87559e-09
2.38825e-17
1.77295e-09
2.97173e-17
1.62947e-09
3.46296e-17
1.44087e-09
3.67352e-17
1.20359e-09
3.26842e-17
9.15986e-10
2.06889e-17
5.7985e-10
2.02135e-10
-7.85379e-17
2.02135e-10
-9.78708e-17
5.7985e-10
-9.78685e-17
9.15986e-10
-9.01052e-17
1.20359e-09
-7.87421e-17
1.44087e-09
-6.61925e-17
1.62947e-09
-5.335e-17
1.77295e-09
-4.06199e-17
1.87559e-09
-2.81519e-17
1.94143e-09
-1.58065e-17
1.97353e-09
-3.02394e-18
1.97353e-09
1.01569e-17
1.94143e-09
2.18853e-17
1.87559e-09
3.15936e-17
1.77295e-09
4.07955e-17
1.62947e-09
4.86907e-17
1.44087e-09
5.44365e-17
1.20359e-09
5.31776e-17
9.15986e-10
4.05635e-17
5.7985e-10
2.02135e-10
-5.49525e-17
2.02135e-10
-7.68025e-17
5.7985e-10
-8.59817e-17
9.15986e-10
-8.57533e-17
1.20359e-09
-7.91098e-17
1.44087e-09
-6.88103e-17
1.62947e-09
-5.64477e-17
1.77295e-09
-4.29754e-17
1.87559e-09
-2.89986e-17
1.94143e-09