/*--------------------------------*- C++ -*----------------------------------*\
| =========                 |                                                 |
| \\      /  F ield         | OpenFOAM: The Open Source CFD Toolbox           |
|  \\    /   O peration     | Version:  2.1.x                                 |
|   \\  /    A nd           | Web:      www.OpenFOAM.org                      |
|    \\/     M anipulation  |                                                 |
\*---------------------------------------------------------------------------*/
FoamFile
{
    version     2.0;
    format      ascii;
    class       volVectorField;
    location    "0.05";
    object      U;
}
// * * * * * * * * * * * * * * * * * * * * * * * * * * * * * * * * * * * * * //

dimensions      [0 1 -1 0 0 0 0];

internalField   nonuniform List<vector> 
8000
(
(4.76076e-11 0.00404271 0)
(4.23834e-10 0.011597 0)
(6.19713e-10 0.0183197 0)
(6.35505e-10 0.0240717 0)
(5.34258e-10 0.0288174 0)
(3.91047e-10 0.0325893 0)
(2.53722e-10 0.0354589 0)
(1.45722e-10 0.0375118 0)
(7.14826e-11 0.0388286 0)
(2.25187e-11 0.0394705 0)
(-1.67358e-11 0.0394706 0)
(-6.3931e-11 0.0388286 0)
(-1.34349e-10 0.0375118 0)
(-2.35913e-10 0.0354589 0)
(-3.63433e-10 0.0325893 0)
(-4.93198e-10 0.0288174 0)
(-5.78577e-10 0.0240717 0)
(-5.52664e-10 0.0183197 0)
(-3.63987e-10 0.011597 0)
(-3.67273e-11 0.00404271 0)
(2.3123e-10 0.00404271 0)
(1.0992e-09 0.011597 0)
(1.53723e-09 0.0183197 0)
(1.6057e-09 0.0240717 0)
(1.38486e-09 0.0288174 0)
(1.03792e-09 0.0325893 0)
(6.87793e-10 0.0354589 0)
(4.02792e-10 0.0375118 0)
(2.01275e-10 0.0388286 0)
(6.49964e-11 0.0394706 0)
(-4.54224e-11 0.0394706 0)
(-1.75847e-10 0.0388286 0)
(-3.64715e-10 0.0375118 0)
(-6.28321e-10 0.0354589 0)
(-9.45574e-10 0.0325893 0)
(-1.24616e-09 0.0288174 0)
(-1.40863e-09 0.0240717 0)
(-1.2866e-09 0.0183197 0)
(-8.08213e-10 0.011597 0)
(-1.31027e-10 0.00404271 0)
(3.42995e-10 0.00404271 0)
(1.34689e-09 0.011597 0)
(1.86505e-09 0.0183197 0)
(2.00399e-09 0.0240717 0)
(1.77968e-09 0.0288174 0)
(1.36508e-09 0.0325893 0)
(9.1929e-10 0.0354589 0)
(5.43887e-10 0.0375118 0)
(2.74024e-10 0.0388286 0)
(9.13278e-11 0.0394706 0)
(-5.53214e-11 0.0394706 0)
(-2.27458e-10 0.0388286 0)
(-4.74578e-10 0.0375118 0)
(-8.11593e-10 0.0354589 0)
(-1.19836e-09 0.0325893 0)
(-1.52882e-09 0.0288174 0)
(-1.64263e-09 0.0240717 0)
(-1.3873e-09 0.0183197 0)
(-7.14603e-10 0.011597 0)
(-8.53153e-11 0.00404271 0)
(3.27969e-10 0.00404271 0)
(1.30409e-09 0.011597 0)
(1.78782e-09 0.0183197 0)
(1.95678e-09 0.0240717 0)
(1.77248e-09 0.0288174 0)
(1.37984e-09 0.0325893 0)
(9.36693e-10 0.0354589 0)
(5.55113e-10 0.0375118 0)
(2.79901e-10 0.0388286 0)
(9.67318e-11 0.0394706 0)
(-4.67357e-11 0.0394706 0)
(-2.15239e-10 0.0388286 0)
(-4.59071e-10 0.0375118 0)
(-7.88167e-10 0.0354589 0)
(-1.15144e-09 0.0325893 0)
(-1.43118e-09 0.0288174 0)
(-1.46719e-09 0.0240717 0)
(-1.14105e-09 0.0183197 0)
(-4.29128e-10 0.011597 0)
(3.7161e-11 0.00404271 0)
(2.68466e-10 0.00404271 0)
(1.1152e-09 0.011597 0)
(1.55298e-09 0.0183197 0)
(1.72904e-09 0.0240717 0)
(1.58761e-09 0.0288174 0)
(1.2457e-09 0.0325893 0)
(8.45984e-10 0.0354589 0)
(4.97666e-10 0.0375118 0)
(2.48579e-10 0.0388286 0)
(8.84411e-11 0.0394706 0)
(-3.19812e-11 0.0394706 0)
(-1.74892e-10 0.0388286 0)
(-3.87532e-10 0.0375118 0)
(-6.76063e-10 0.0354589 0)
(-9.87174e-10 0.0325893 0)
(-1.20813e-09 0.0288174 0)
(-1.19856e-09 0.0240717 0)
(-8.78946e-10 0.0183197 0)
(-2.59497e-10 0.011597 0)
(6.87147e-11 0.00404271 0)
(2.06811e-10 0.00404271 0)
(8.90289e-10 0.011597 0)
(1.27127e-09 0.0183197 0)
(1.43407e-09 0.0240717 0)
(1.32379e-09 0.0288174 0)
(1.03573e-09 0.0325893 0)
(6.93339e-10 0.0354589 0)
(3.96148e-10 0.0375118 0)
(1.90322e-10 0.0388286 0)
(6.79641e-11 0.0394706 0)
(-1.63536e-11 0.0394706 0)
(-1.2079e-10 0.0388286 0)
(-2.89266e-10 0.0375118 0)
(-5.26995e-10 0.0354589 0)
(-7.85169e-10 0.0325893 0)
(-9.6558e-10 0.0288174 0)
(-9.55799e-10 0.0240717 0)
(-7.06331e-10 0.0183197 0)
(-2.72132e-10 0.011597 0)
(4.28002e-12 0.00404271 0)
(1.5027e-10 0.00404271 0)
(6.75442e-10 0.011597 0)
(9.87704e-10 0.0183197 0)
(1.11541e-09 0.0240717 0)
(1.02043e-09 0.0288174 0)
(7.80357e-10 0.0325893 0)
(4.98692e-10 0.0354589 0)
(2.61616e-10 0.0375118 0)
(1.10014e-10 0.0388286 0)
(3.61812e-11 0.0394706 0)
(-2.14583e-12 0.0394706 0)
(-5.91021e-11 0.0388286 0)
(-1.76079e-10 0.0375118 0)
(-3.60117e-10 0.0354589 0)
(-5.71475e-10 0.0325893 0)
(-7.30678e-10 0.0288174 0)
(-7.53042e-10 0.0240717 0)
(-6.09731e-10 0.0183197 0)
(-3.8124e-10 0.011597 0)
(-9.05759e-11 0.00404271 0)
(9.61095e-11 0.00404271 0)
(4.68099e-10 0.011597 0)
(7.04101e-10 0.0183197 0)
(7.87827e-10 0.0240717 0)
(6.99515e-10 0.0288174 0)
(5.01588e-10 0.0325893 0)
(2.7977e-10 0.0354589 0)
(1.06272e-10 0.0375118 0)
(1.46292e-11 0.0388286 0)
(-4.51792e-12 0.0394706 0)
(8.83438e-12 0.0394706 0)
(4.0859e-12 0.0388286 0)
(-5.83031e-11 0.0375118 0)
(-1.88984e-10 0.0354589 0)
(-3.59045e-10 0.0325893 0)
(-5.07062e-10 0.0288174 0)
(-5.69291e-10 0.0240717 0)
(-5.23209e-10 0.0183197 0)
(-4.49444e-10 0.011597 0)
(-1.48701e-10 0.00404271 0)
(4.64914e-11 0.0040427 0)
(2.58766e-10 0.011597 0)
(4.08689e-10 0.0183197 0)
(4.53285e-10 0.0240717 0)
(3.71745e-10 0.0288174 0)
(2.14062e-10 0.0325893 0)
(5.0782e-11 0.0354589 0)
(-5.84492e-11 0.0375118 0)
(-8.81777e-11 0.0388286 0)
(-5.09574e-11 0.0394706 0)
(1.55692e-11 0.0394706 0)
(6.39414e-11 0.0388286 0)
(5.62719e-11 0.0375118 0)
(-2.24725e-11 0.0354589 0)
(-1.53598e-10 0.0325893 0)
(-2.89732e-10 0.0288174 0)
(-3.79962e-10 0.0240717 0)
(-3.97211e-10 0.0183197 0)
(-3.93019e-10 0.011597 0)
(-1.34965e-10 0.00404271 0)
(-3.982e-12 0.0040427 0)
(4.28144e-11 0.011597 0)
(1.0872e-10 0.0183197 0)
(1.19204e-10 0.0240717 0)
(4.61313e-11 0.0288174 0)
(-7.09666e-11 0.0325893 0)
(-1.75401e-10 0.0354589 0)
(-2.2212e-10 0.0375118 0)
(-1.92365e-10 0.0388286 0)
(-1.00044e-10 0.0394706 0)
(1.84453e-11 0.0394706 0)
(1.18235e-10 0.0388286 0)
(1.6208e-10 0.0375118 0)
(1.32732e-10 0.0354589 0)
(4.11313e-11 0.0325893 0)
(-7.78035e-11 0.0288174 0)
(-1.8082e-10 0.0240717 0)
(-2.31465e-10 0.0183197 0)
(-2.3701e-10 0.011597 0)
(-7.11701e-11 0.00404271 0)
(-6.2067e-11 0.0040427 0)
(-1.78023e-10 0.011597 0)
(-1.7954e-10 0.0183197 0)
(-2.02302e-10 0.0240717 0)
(-2.63679e-10 0.0288174 0)
(-3.40109e-10 0.0325893 0)
(-3.89185e-10 0.0354589 0)
(-3.77293e-10 0.0375118 0)
(-2.92088e-10 0.0388286 0)
(-1.48432e-10 0.0394706 0)
(1.84686e-11 0.0394706 0)
(1.65695e-10 0.0388286 0)
(2.56619e-10 0.0375118 0)
(2.72377e-10 0.0354589 0)
(2.18271e-10 0.0325893 0)
(1.20097e-10 0.0288174 0)
(1.2845e-11 0.0240717 0)
(-6.18977e-11 0.0183197 0)
(-7.99083e-11 0.011597 0)
(-1.48719e-11 0.00404271 0)
(-1.32012e-10 0.00404271 0)
(-3.94635e-10 0.011597 0)
(-4.37767e-10 0.0183197 0)
(-4.94008e-10 0.0240717 0)
(-5.4328e-10 0.0288174 0)
(-5.82003e-10 0.0325893 0)
(-5.81149e-10 0.0354589 0)
(-5.16825e-10 0.0375118 0)
(-3.82085e-10 0.0388286 0)
(-1.92798e-10 0.0394706 0)
(1.69716e-11 0.0394706 0)
(2.06029e-10 0.0388286 0)
(3.38451e-10 0.0375118 0)
(3.93963e-10 0.0354589 0)
(3.73199e-10 0.0325893 0)
(2.94233e-10 0.0288174 0)
(1.82941e-10 0.0240717 0)
(7.52493e-11 0.0183197 0)
(-9.44144e-13 0.011597 0)
(-6.1069e-12 0.00404271 0)
(-1.74156e-10 0.00404271 0)
(-5.40026e-10 0.011597 0)
(-6.32729e-10 0.0183197 0)
(-7.29976e-10 0.0240717 0)
(-7.75337e-10 0.0288174 0)
(-7.84357e-10 0.0325893 0)
(-7.41906e-10 0.0354589 0)
(-6.33593e-10 0.0375118 0)
(-4.57317e-10 0.0388286 0)
(-2.29989e-10 0.0394706 0)
(1.54202e-11 0.0394706 0)
(2.39417e-10 0.0388286 0)
(4.06995e-10 0.0375118 0)
(4.96859e-10 0.0354589 0)
(5.05708e-10 0.0325893 0)
(4.44724e-10 0.0288174 0)
(3.31098e-10 0.0240717 0)
(1.88994e-10 0.0183197 0)
(2.39278e-11 0.011597 0)
(-2.99201e-11 0.00404271 0)
(-1.61218e-10 0.00404271 0)
(-5.74911e-10 0.011597 0)
(-7.48192e-10 0.0183197 0)
(-8.89987e-10 0.0240717 0)
(-9.4439e-10 0.0288174 0)
(-9.35657e-10 0.0325893 0)
(-8.63015e-10 0.0354589 0)
(-7.21475e-10 0.0375118 0)
(-5.13617e-10 0.0388286 0)
(-2.57471e-10 0.0394706 0)
(1.50394e-11 0.0394706 0)
(2.66139e-10 0.0388286 0)
(4.62042e-10 0.0375118 0)
(5.81212e-10 0.0354589 0)
(6.18074e-10 0.0325893 0)
(5.8e-10 0.0288174 0)
(4.80257e-10 0.0240717 0)
(3.30909e-10 0.0183197 0)
(1.17766e-10 0.011597 0)
(-1.56123e-11 0.00404271 0)
(-1.3272e-10 0.00404271 0)
(-5.57586e-10 0.011597 0)
(-8.0014e-10 0.0183197 0)
(-9.7672e-10 0.0240717 0)
(-1.04474e-09 0.0288174 0)
(-1.0292e-09 0.0325893 0)
(-9.38942e-10 0.0354589 0)
(-7.76431e-10 0.0375118 0)
(-5.48308e-10 0.0388286 0)
(-2.73683e-10 0.0394705 0)
(1.6474e-11 0.0394705 0)
(2.86072e-10 0.0388286 0)
(5.02854e-10 0.0375118 0)
(6.46108e-10 0.0354589 0)
(7.10495e-10 0.0325893 0)
(7.04353e-10 0.0288174 0)
(6.43931e-10 0.0240717 0)
(5.32635e-10 0.0183197 0)
(3.7404e-10 0.011597 0)
(9.1281e-11 0.00404271 0)
(-1.52129e-10 0.00404271 0)
(-6.23966e-10 0.011597 0)
(-8.66451e-10 0.0183197 0)
(-1.01738e-09 0.0240717 0)
(-1.08238e-09 0.0288174 0)
(-1.06461e-09 0.0325893 0)
(-9.67905e-10 0.0354589 0)
(-7.96824e-10 0.0375118 0)
(-5.6026e-10 0.0388286 0)
(-2.78011e-10 0.0394705 0)
(1.9784e-11 0.0394705 0)
(2.98583e-10 0.0388286 0)
(5.27841e-10 0.0375118 0)
(6.88584e-10 0.0354589 0)
(7.779e-10 0.0325893 0)
(8.08686e-10 0.0288174 0)
(8.03746e-10 0.0240717 0)
(7.59872e-10 0.0183197 0)
(7.44134e-10 0.011597 0)
(2.66981e-10 0.00404271 0)
(-2.13801e-10 0.00404271 0)
(-7.1123e-10 0.011597 0)
(-8.72208e-10 0.0183197 0)
(-9.99325e-10 0.0240717 0)
(-1.05809e-09 0.0288174 0)
(-1.04368e-09 0.0325893 0)
(-9.51042e-10 0.0354589 0)
(-7.83179e-10 0.0375118 0)
(-5.49631e-10 0.0388286 0)
(-2.70477e-10 0.0394705 0)
(2.48586e-11 0.0394705 0)
(3.03176e-10 0.0388286 0)
(5.35581e-10 0.0375118 0)
(7.05096e-10 0.0354589 0)
(8.11818e-10 0.0325893 0)
(8.73434e-10 0.0288174 0)
(9.18328e-10 0.0240717 0)
(9.39986e-10 0.0183197 0)
(1.06926e-09 0.011597 0)
(4.26069e-10 0.00404271 0)
(-2.79027e-10 0.00404271 0)
(-7.90917e-10 0.011597 0)
(-8.43202e-10 0.0183197 0)
(-9.38468e-10 0.0240717 0)
(-9.85079e-10 0.0288174 0)
(-9.75207e-10 0.0325893 0)
(-8.93972e-10 0.0354589 0)
(-7.38781e-10 0.0375118 0)
(-5.1807e-10 0.0388286 0)
(-2.51649e-10 0.0394705 0)
(3.18337e-11 0.0394705 0)
(3.0037e-10 0.0388286 0)
(5.2638e-10 0.0375118 0)
(6.9413e-10 0.0354589 0)
(8.04772e-10 0.0325893 0)
(8.76164e-10 0.0288174 0)
(9.34303e-10 0.0240717 0)
(9.68031e-10 0.0183197 0)
(1.12749e-09 0.011597 0)
(4.52527e-10 0.00404271 0)
(-2.95959e-10 0.00404271 0)
(-7.90742e-10 0.011597 0)
(-7.76535e-10 0.0183197 0)
(-8.39814e-10 0.0240717 0)
(-8.75527e-10 0.0288174 0)
(-8.7084e-10 0.0325893 0)
(-8.05172e-10 0.0354589 0)
(-6.69177e-10 0.0375118 0)
(-4.68758e-10 0.0388286 0)
(-2.22759e-10 0.0394705 0)
(4.11723e-11 0.0394705 0)
(2.92193e-10 0.0388286 0)
(5.03534e-10 0.0375118 0)
(6.59171e-10 0.0354589 0)
(7.57579e-10 0.0325893 0)
(8.09699e-10 0.0288174 0)
(8.28703e-10 0.0240717 0)
(7.9994e-10 0.0183197 0)
(8.22821e-10 0.011597 0)
(2.97228e-10 0.00404271 0)
(-2.36137e-10 0.00404271 0)
(-6.27264e-10 0.011597 0)
(-6.18722e-10 0.0183197 0)
(-6.82309e-10 0.0240717 0)
(-7.2844e-10 0.0288174 0)
(-7.38715e-10 0.0325893 0)
(-6.93594e-10 0.0354589 0)
(-5.8135e-10 0.0375118 0)
(-4.06194e-10 0.0388286 0)
(-1.85831e-10 0.0394705 0)
(5.33861e-11 0.0394705 0)
(2.81904e-10 0.0388286 0)
(4.73352e-10 0.0375118 0)
(6.09939e-10 0.0354589 0)
(6.84081e-10 0.0325893 0)
(6.94164e-10 0.0288174 0)
(6.33116e-10 0.0240717 0)
(4.92137e-10 0.0183197 0)
(2.87588e-10 0.011597 0)
(3.69824e-11 0.00404271 0)
(-7.0043e-11 0.00404271 0)
(-2.378e-10 0.011597 0)
(-3.30104e-10 0.0183197 0)
(-4.45481e-10 0.0240717 0)
(-5.39566e-10 0.0288174 0)
(-5.84801e-10 0.0325893 0)
(-5.68242e-10 0.0354589 0)
(-4.83302e-10 0.0375118 0)
(-3.36024e-10 0.0388286 0)
(-1.43791e-10 0.0394705 0)
(6.85288e-11 0.0394705 0)
(2.72948e-10 0.0388286 0)
(4.43528e-10 0.0375118 0)
(5.60316e-10 0.0354589 0)
(6.08736e-10 0.0325893 0)
(5.73691e-10 0.0288174 0)
(4.27261e-10 0.0240717 0)
(1.90711e-10 0.0183197 0)
(-2.01651e-10 0.011597 0)
(-1.9243e-10 0.00404271 0)
(1.91119e-10 0.00404271 0)
(3.36544e-10 0.011597 0)
(5.76484e-11 0.0183197 0)
(-1.52222e-10 0.0240717 0)
(-3.25563e-10 0.0288174 0)
(-4.22534e-10 0.0325893 0)
(-4.40795e-10 0.0354589 0)
(-3.84428e-10 0.0375118 0)
(-2.64972e-10 0.0388286 0)
(-1.00532e-10 0.0394705 0)
(8.55514e-11 0.0394705 0)
(2.6733e-10 0.0388286 0)
(4.20068e-10 0.0375118 0)
(5.22835e-10 0.0354589 0)
(5.56563e-10 0.0325893 0)
(4.98104e-10 0.0288174 0)
(3.11512e-10 0.0240717 0)
(3.61553e-11 0.0183197 0)
(-4.05278e-10 0.011597 0)
(-2.69596e-10 0.00404271 0)
(4.17452e-10 0.00404271 0)
(8.3724e-10 0.011597 0)
(3.96357e-10 0.0183197 0)
(1.02327e-10 0.0240717 0)
(-1.39969e-10 0.0288174 0)
(-2.80541e-10 0.0325893 0)
(-3.28249e-10 0.0354589 0)
(-2.95879e-10 0.0375118 0)
(-2.00536e-10 0.0388286 0)
(-6.09772e-11 0.0394705 0)
(1.0157e-10 0.0394705 0)
(2.63901e-10 0.0388286 0)
(4.03564e-10 0.0375118 0)
(5.01015e-10 0.0354589 0)
(5.37359e-10 0.0325893 0)
(4.90457e-10 0.0288174 0)
(3.36537e-10 0.0240717 0)
(1.13632e-10 0.0183197 0)
(-2.09612e-10 0.011597 0)
(-1.55819e-10 0.00404271 0)
(4.37581e-10 0.00404271 0)
(9.23955e-10 0.011597 0)
(4.95205e-10 0.0183197 0)
(2.00031e-10 0.0240717 0)
(-4.80447e-11 0.0288174 0)
(-1.93606e-10 0.0325893 0)
(-2.49079e-10 0.0354589 0)
(-2.28587e-10 0.0375118 0)
(-1.50004e-10 0.0388286 0)
(-3.04317e-11 0.0394705 0)
(1.11946e-10 0.0394705 0)
(2.57454e-10 0.0388286 0)
(3.87129e-10 0.0375118 0)
(4.84779e-10 0.0354589 0)
(5.36363e-10 0.0325893 0)
(5.30227e-10 0.0288174 0)
(4.67764e-10 0.0240717 0)
(3.69107e-10 0.0183197 0)
(2.79711e-10 0.011597 0)
(9.07103e-11 0.00404271 0)
(2.09486e-10 0.00404271 0)
(4.79967e-10 0.011597 0)
(2.69246e-10 0.0183197 0)
(8.52867e-11 0.0240717 0)
(-7.96195e-11 0.0288174 0)
(-1.78303e-10 0.0325893 0)
(-2.12607e-10 0.0354589 0)
(-1.88498e-10 0.0375118 0)
(-1.17951e-10 0.0388286 0)
(-1.33171e-11 0.0394705 0)
(1.11358e-10 0.0394705 0)
(2.40338e-10 0.0388286 0)
(3.58427e-10 0.0375118 0)
(4.53373e-10 0.0354589 0)
(5.17955e-10 0.0325893 0)
(5.5443e-10 0.0288174 0)
(5.87662e-10 0.0240717 0)
(6.19988e-10 0.0183197 0)
(7.68855e-10 0.011597 0)
(3.39385e-10 0.00404271 0)
(-1.61247e-10 0.00404271 0)
(-3.04379e-10 0.011597 0)
(-1.90385e-10 0.0183197 0)
(-1.87302e-10 0.0240717 0)
(-2.05505e-10 0.0288174 0)
(-2.20363e-10 0.0325893 0)
(-2.121e-10 0.0354589 0)
(-1.72877e-10 0.0375118 0)
(-1.03974e-10 0.0388286 0)
(-1.10221e-11 0.0394705 0)
(9.64104e-11 0.0394705 0)
(2.06127e-10 0.0388286 0)
(3.05805e-10 0.0375118 0)
(3.85922e-10 0.0354589 0)
(4.44012e-10 0.0325893 0)
(4.90462e-10 0.0288174 0)
(5.55098e-10 0.0240717 0)
(6.29081e-10 0.0183197 0)
(7.92315e-10 0.011597 0)
(3.35326e-10 0.00404271 0)
(-4.65815e-10 0.00404271 0)
(-1.00984e-09 0.011597 0)
(-6.4988e-10 0.0183197 0)
(-4.75066e-10 0.0240717 0)
(-3.49715e-10 0.0288174 0)
(-2.78329e-10 0.0325893 0)
(-2.25701e-10 0.0354589 0)
(-1.70068e-10 0.0375118 0)
(-1.01861e-10 0.0388286 0)
(-2.04627e-11 0.0394705 0)
(6.80609e-11 0.0394705 0)
(1.53763e-10 0.0388286 0)
(2.25669e-10 0.0375118 0)
(2.75162e-10 0.0354589 0)
(3.01041e-10 0.0325893 0)
(3.13522e-10 0.0288174 0)
(3.29138e-10 0.0240717 0)
(3.36714e-10 0.0183197 0)
(2.6068e-10 0.011597 0)
(3.5361e-11 0.00404271 0)
(-5.49106e-10 0.00404271 0)
(-1.27223e-09 0.011597 0)
(-8.67732e-10 0.0183197 0)
(-6.19458e-10 0.0240717 0)
(-4.20419e-10 0.0288174 0)
(-3.00576e-10 0.0325893 0)
(-2.24288e-10 0.0354589 0)
(-1.63106e-10 0.0375118 0)
(-1.01154e-10 0.0388286 0)
(-3.44982e-11 0.0394705 0)
(3.20843e-11 0.0394705 0)
(8.9057e-11 0.0388286 0)
(1.25568e-10 0.0375118 0)
(1.33369e-10 0.0354589 0)
(1.11589e-10 0.0325893 0)
(6.81948e-11 0.0288174 0)
(6.63774e-12 0.0240717 0)
(-5.81054e-11 0.0183197 0)
(-2.05447e-10 0.011597 0)
(-1.27658e-10 0.00404271 0)
(-3.82091e-10 0.00404271 0)
(-9.61877e-10 0.011597 0)
(-7.11415e-10 0.0183197 0)
(-5.17317e-10 0.0240717 0)
(-3.49965e-10 0.0288174 0)
(-2.46244e-10 0.0325893 0)
(-1.8308e-10 0.0354589 0)
(-1.36244e-10 0.0375118 0)
(-9.09643e-11 0.0388286 0)
(-4.4493e-11 0.0394705 0)
(-3.13438e-12 0.0394705 0)
(2.22663e-11 0.0388286 0)
(2.07855e-11 0.0375118 0)
(-1.45828e-11 0.0354589 0)
(-8.36931e-11 0.0325893 0)
(-1.80261e-10 0.0288174 0)
(-3.03562e-10 0.0240717 0)
(-4.29158e-10 0.0183197 0)
(-6.42479e-10 0.011597 0)
(-3.026e-10 0.00404271 0)
(-6.40511e-11 0.00404271 0)
(-2.12078e-10 0.011597 0)
(-2.05918e-10 0.0183197 0)
(-1.6789e-10 0.0240717 0)
(-1.29298e-10 0.0288174 0)
(-1.05769e-10 0.0325893 0)
(-9.37043e-11 0.0354589 0)
(-8.22202e-11 0.0375118 0)
(-6.47339e-11 0.0388286 0)
(-4.40356e-11 0.0394705 0)
(-3.02811e-11 0.0394705 0)
(-3.64077e-11 0.0388286 0)
(-7.26692e-11 0.0375118 0)
(-1.43178e-10 0.0354589 0)
(-2.44971e-10 0.0325893 0)
(-3.69221e-10 0.0288174 0)
(-5.02025e-10 0.0240717 0)
(-6.00686e-10 0.0183197 0)
(-6.11851e-10 0.011597 0)
(-1.9059e-10 0.00404271 0)
(5.11321e-10 0.00404271 0)
(9.60709e-10 0.011597 0)
(5.13886e-10 0.0183197 0)
(3.22655e-10 0.0240717 0)
(1.77773e-10 0.0288174 0)
(8.76374e-11 0.0325893 0)
(2.80462e-11 0.0354589 0)
(-7.44879e-12 0.0375118 0)
(-2.40241e-11 0.0388286 0)
(-3.21363e-11 0.0394705 0)
(-4.63305e-11 0.0394705 0)
(-8.09312e-11 0.0388286 0)
(-1.44485e-10 0.0375118 0)
(-2.37864e-10 0.0354589 0)
(-3.55314e-10 0.0325893 0)
(-4.8393e-10 0.0288174 0)
(-5.94948e-10 0.0240717 0)
(-6.51272e-10 0.0183197 0)
(-4.90327e-10 0.011597 0)
(-8.63225e-11 0.00404271 0)
(6.91327e-10 0.00404271 0)
(1.51828e-09 0.011597 0)
(9.88294e-10 0.0183197 0)
(6.87973e-10 0.0240717 0)
(4.32682e-10 0.0288174 0)
(2.61937e-10 0.0325893 0)
(1.45441e-10 0.0354589 0)
(6.93357e-11 0.0375118 0)
(2.13251e-11 0.0388286 0)
(-1.37094e-11 0.0394705 0)
(-5.26518e-11 0.0394705 0)
(-1.09368e-10 0.0388286 0)
(-1.9009e-10 0.0375118 0)
(-2.93697e-10 0.0354589 0)
(-4.12971e-10 0.0325893 0)
(-5.29021e-10 0.0288174 0)
(-5.96169e-10 0.0240717 0)
(-5.65813e-10 0.0183197 0)
(-2.68612e-10 0.011597 0)
(4.79889e-11 0.00404271 0)
(5.62349e-10 0.00404271 0)
(1.36993e-09 0.011597 0)
(1.02704e-09 0.0183197 0)
(7.82079e-10 0.0240717 0)
(5.40119e-10 0.0288174 0)
(3.58857e-10 0.0325893 0)
(2.24009e-10 0.0354589 0)
(1.27745e-10 0.0375118 0)
(5.94381e-11 0.0388286 0)
(4.71171e-12 0.0394705 0)
(-5.17571e-11 0.0394705 0)
(-1.21233e-10 0.0388286 0)
(-2.08314e-10 0.0375118 0)
(-3.12507e-10 0.0354589 0)
(-4.28026e-10 0.0325893 0)
(-5.33686e-10 0.0288174 0)
(-5.89076e-10 0.0240717 0)
(-5.346e-10 0.0183197 0)
(-5.55419e-10 0.011597 0)
(-2.35947e-10 0.00404271 0)
(8.56354e-11 0.00404271 0)
(5.3632e-10 0.011597 0)
(6.67967e-10 0.0183197 0)
(6.16983e-10 0.0240717 0)
(4.93614e-10 0.0288174 0)
(3.64559e-10 0.0325893 0)
(2.50062e-10 0.0354589 0)
(1.56933e-10 0.0375118 0)
(8.2975e-11 0.0388286 0)
(1.94367e-11 0.0394705 0)
(-4.40913e-11 0.0394705 0)
(-1.15272e-10 0.0388286 0)
(-1.98432e-10 0.0375118 0)
(-2.95676e-10 0.0354589 0)
(-4.04129e-10 0.0325893 0)
(-5.04524e-10 0.0288174 0)
(-5.73814e-10 0.0240717 0)
(-5.46233e-10 0.0183197 0)
(-6.70868e-10 0.011597 0)
(-2.97497e-10 0.00404271 0)
(-1.73713e-10 0.00404271 0)
(-8.51429e-11 0.011597 0)
(2.75497e-10 0.0183197 0)
(3.74468e-10 0.0240717 0)
(3.72568e-10 0.0288174 0)
(3.11313e-10 0.0325893 0)
(2.34318e-10 0.0354589 0)
(1.59221e-10 0.0375118 0)
(9.21555e-11 0.0388286 0)
(3.13474e-11 0.0394705 0)
(-2.78476e-11 0.0394705 0)
(-8.99518e-11 0.0388286 0)
(-1.59923e-10 0.0375118 0)
(-2.42494e-10 0.0354589 0)
(-3.37166e-10 0.0325893 0)
(-4.30014e-10 0.0288174 0)
(-5.23472e-10 0.0240717 0)
(-5.68025e-10 0.0183197 0)
(-7.49727e-10 0.011597 0)
(-3.38995e-10 0.00404271 0)
(-2.72297e-10 0.00404271 0)
(-4.01742e-10 0.011597 0)
(3.63918e-12 0.0183197 0)
(1.80592e-10 0.0240717 0)
(2.51989e-10 0.0288174 0)
(2.40942e-10 0.0325893 0)
(1.98049e-10 0.0354589 0)
(1.45046e-10 0.0375118 0)
(9.2509e-11 0.0388286 0)
(4.38029e-11 0.0394705 0)
(-1.34598e-12 0.0394705 0)
(-4.55612e-11 0.0388286 0)
(-9.41413e-11 0.0375118 0)
(-1.52148e-10 0.0354589 0)
(-2.18425e-10 0.0325893 0)
(-2.82863e-10 0.0288174 0)
(-3.59341e-10 0.0240717 0)
(-4.05366e-10 0.0183197 0)
(-4.32571e-10 0.011597 0)
(-1.41165e-10 0.00404271 0)
(-1.74986e-10 0.00404271 0)
(-3.02431e-10 0.011597 0)
(-3.97616e-11 0.0183197 0)
(1.05926e-10 0.0240717 0)
(1.78215e-10 0.0288174 0)
(1.83966e-10 0.0325893 0)
(1.60184e-10 0.0354589 0)
(1.25667e-10 0.0375118 0)
(9.03847e-11 0.0388286 0)
(5.9469e-11 0.0394705 0)
(3.45003e-11 0.0394705 0)
(1.37054e-11 0.0388286 0)
(-7.35662e-12 0.0375118 0)
(-3.1589e-11 0.0354589 0)
(-5.5377e-11 0.0325893 0)
(-7.30742e-11 0.0288174 0)
(-1.0564e-10 0.0240717 0)
(-1.29542e-10 0.0183197 0)
(-1.4325e-10 0.011597 0)
(-5.39748e-11 0.00404271 0)
(4.92521e-11 0.00404271 0)
(8.25471e-11 0.011597 0)
(9.15893e-11 0.0183197 0)
(1.32257e-10 0.0240717 0)
(1.5092e-10 0.0288174 0)
(1.4575e-10 0.0325893 0)
(1.27893e-10 0.0354589 0)
(1.07087e-10 0.0375118 0)
(8.91592e-11 0.0388286 0)
(7.81831e-11 0.0394705 0)
(7.56541e-11 0.0394705 0)
(8.01802e-11 0.0388286 0)
(8.94958e-11 0.0375118 0)
(1.04539e-10 0.0354589 0)
(1.31399e-10 0.0325893 0)
(1.70758e-10 0.0288174 0)
(2.04607e-10 0.0240717 0)
(2.23916e-10 0.0183197 0)
(2.53274e-10 0.011597 0)
(9.58431e-11 0.00404271 0)
(2.45525e-10 0.00404271 0)
(4.46003e-10 0.011597 0)
(2.32472e-10 0.0183197 0)
(1.69163e-10 0.0240717 0)
(1.2841e-10 0.0288174 0)
(1.08965e-10 0.0325893 0)
(9.57171e-11 0.0354589 0)
(8.83441e-11 0.0375118 0)
(8.80213e-11 0.0388286 0)
(9.6924e-11 0.0394705 0)
(1.15962e-10 0.0394705 0)
(1.44423e-10 0.0388286 0)
(1.82805e-10 0.0375118 0)
(2.3571e-10 0.0354589 0)
(3.10013e-10 0.0325893 0)
(4.0277e-10 0.0288174 0)
(5.02808e-10 0.0240717 0)
(5.70197e-10 0.0183197 0)
(6.52056e-10 0.011597 0)
(2.50466e-10 0.00404271 0)
(2.94886e-10 0.00404271 0)
(5.19593e-10 0.011597 0)
(2.17437e-10 0.0183197 0)
(1.20063e-10 0.0240717 0)
(6.29556e-11 0.0288174 0)
(5.04169e-11 0.0325893 0)
(5.33916e-11 0.0354589 0)
(6.50562e-11 0.0375118 0)
(8.39791e-11 0.0388286 0)
(1.1166e-10 0.0394705 0)
(1.49213e-10 0.0394705 0)
(1.97246e-10 0.0388286 0)
(2.58773e-10 0.0375118 0)
(3.40323e-10 0.0354589 0)
(4.47076e-10 0.0325893 0)
(5.73922e-10 0.0288174 0)
(7.14001e-10 0.0240717 0)
(8.09438e-10 0.0183197 0)
(8.96426e-10 0.011597 0)
(3.28825e-10 0.00404271 0)
(1.53853e-10 0.00404271 0)
(1.9817e-10 0.011597 0)
(-2.31308e-11 0.0183197 0)
(-6.5088e-11 0.0240717 0)
(-7.18006e-11 0.0288174 0)
(-4.18982e-11 0.0325893 0)
(-4.14152e-12 0.0354589 0)
(3.49965e-11 0.0375118 0)
(7.52986e-11 0.0388286 0)
(1.19841e-10 0.0394705 0)
(1.7128e-10 0.0394705 0)
(2.32079e-10 0.0388286 0)
(3.06903e-10 0.0375118 0)
(4.01868e-10 0.0354589 0)
(5.18694e-10 0.0325893 0)
(6.5132e-10 0.0288174 0)
(7.91431e-10 0.0240717 0)
(8.75137e-10 0.0183197 0)
(9.1818e-10 0.011597 0)
(3.15415e-10 0.00404271 0)
(-1.45229e-10 0.00404271 0)
(-4.19631e-10 0.011597 0)
(-4.17212e-10 0.0183197 0)
(-3.54252e-10 0.0240717 0)
(-2.56587e-10 0.0288174 0)
(-1.56199e-10 0.0325893 0)
(-6.97172e-11 0.0354589 0)
(2.25444e-12 0.0375118 0)
(6.40395e-11 0.0388286 0)
(1.22011e-10 0.0394705 0)
(1.81333e-10 0.0394705 0)
(2.46404e-10 0.0388286 0)
(3.22389e-10 0.0375118 0)
(4.13232e-10 0.0354589 0)
(5.17508e-10 0.0325893 0)
(6.29692e-10 0.0288174 0)
(7.37756e-10 0.0240717 0)
(7.83846e-10 0.0183197 0)
(7.67679e-10 0.011597 0)
(2.41052e-10 0.00404271 0)
(-3.95587e-10 0.00404271 0)
(-1.00461e-09 0.011597 0)
(-8.14845e-10 0.0183197 0)
(-6.43064e-10 0.0240717 0)
(-4.34262e-10 0.0288174 0)
(-2.58461e-10 0.0325893 0)
(-1.23516e-10 0.0354589 0)
(-2.19304e-11 0.0375118 0)
(5.66113e-11 0.0388286 0)
(1.21963e-10 0.0394705 0)
(1.81715e-10 0.0394705 0)
(2.41606e-10 0.0388286 0)
(3.06106e-10 0.0375118 0)
(3.76499e-10 0.0354589 0)
(4.50382e-10 0.0325893 0)
(5.24874e-10 0.0288174 0)
(5.89543e-10 0.0240717 0)
(6.0692e-10 0.0183197 0)
(5.84818e-10 0.011597 0)
(1.81043e-10 0.00404271 0)
(-5.86765e-10 0.00404271 0)
(-1.44476e-09 0.011597 0)
(-1.09151e-09 0.0183197 0)
(-8.20832e-10 0.0240717 0)
(-5.30078e-10 0.0288174 0)
(-3.02939e-10 0.0325893 0)
(-1.38323e-10 0.0354589 0)
(-2.17123e-11 0.0375118 0)
(6.22653e-11 0.0388286 0)
(1.25639e-10 0.0394705 0)
(1.7693e-10 0.0394705 0)
(2.21912e-10 0.0388286 0)
(2.63193e-10 0.0375118 0)
(2.99717e-10 0.0354589 0)
(3.30001e-10 0.0325893 0)
(3.54738e-10 0.0288174 0)
(3.72409e-10 0.0240717 0)
(3.79201e-10 0.0183197 0)
(4.30955e-10 0.011597 0)
(1.72628e-10 0.00404271 0)
(-6.99264e-10 0.00404271 0)
(-1.58477e-09 0.011597 0)
(-1.08578e-09 0.0183197 0)
(-7.70807e-10 0.0240717 0)
(-4.68202e-10 0.0288174 0)
(-2.44285e-10 0.0325893 0)
(-8.8024e-11 0.0354589 0)
(1.80189e-11 0.0375118 0)
(9.01171e-11 0.0388286 0)
(1.39141e-10 0.0394705 0)
(1.7225e-10 0.0394705 0)
(1.93327e-10 0.0388286 0)
(2.01968e-10 0.0375118 0)
(1.94846e-10 0.0354589 0)
(1.70688e-10 0.0325893 0)
(1.3041e-10 0.0288174 0)
(7.91371e-11 0.0240717 0)
(4.64491e-11 0.0183197 0)
(1.26412e-10 0.011597 0)
(1.02501e-10 0.00404271 0)
(-4.53315e-10 0.00404271 0)
(-9.69121e-10 0.011597 0)
(-6.06503e-10 0.0183197 0)
(-3.93069e-10 0.0240717 0)
(-1.99407e-10 0.0288174 0)
(-5.71221e-11 0.0325893 0)
(4.09515e-11 0.0354589 0)
(1.04939e-10 0.0375118 0)
(1.44862e-10 0.0388286 0)
(1.66176e-10 0.0394705 0)
(1.72179e-10 0.0394705 0)
(1.62838e-10 0.0388286 0)
(1.33993e-10 0.0375118 0)
(8.00312e-11 0.0354589 0)
(-3.38245e-12 0.0325893 0)
(-1.22527e-10 0.0288174 0)
(-2.80032e-10 0.0240717 0)
(-4.34264e-10 0.0183197 0)
(-6.50263e-10 0.011597 0)
(-2.99422e-10 0.00404271 0)
(3.71191e-10 0.00404271 0)
(5.96818e-10 0.011597 0)
(3.1622e-10 0.0183197 0)
(2.70165e-10 0.0240717 0)
(2.44131e-10 0.0288174 0)
(2.38235e-10 0.0325893 0)
(2.36266e-10 0.0354589 0)
(2.31874e-10 0.0375118 0)
(2.22355e-10 0.0388286 0)
(2.05566e-10 0.0394705 0)
(1.78795e-10 0.0394705 0)
(1.37052e-10 0.0388286 0)
(7.30413e-11 0.0375118 0)
(-2.03285e-11 0.0354589 0)
(-1.50578e-10 0.0325893 0)
(-3.28906e-10 0.0288174 0)
(-5.59045e-10 0.0240717 0)
(-7.81493e-10 0.0183197 0)
(-1.06589e-09 0.011597 0)
(-4.40791e-10 0.00404271 0)
(5.78002e-10 0.00404271 0)
(1.44612e-09 0.011597 0)
(1.13867e-09 0.0183197 0)
(9.34383e-10 0.0240717 0)
(7.22444e-10 0.0288174 0)
(5.67687e-10 0.0325893 0)
(4.56623e-10 0.0354589 0)
(3.74498e-10 0.0375118 0)
(3.08926e-10 0.0388286 0)
(2.50401e-10 0.0394705 0)
(1.90257e-10 0.0394705 0)
(1.19167e-10 0.0388286 0)
(2.82739e-11 0.0375118 0)
(-8.93221e-11 0.0354589 0)
(-2.40734e-10 0.0325893 0)
(-4.33829e-10 0.0288174 0)
(-6.65345e-10 0.0240717 0)
(-8.74362e-10 0.0183197 0)
(-1.13479e-09 0.011597 0)
(-4.64725e-10 0.00404271 0)
(8.1835e-10 0.00404271 0)
(2.13209e-09 0.011597 0)
(1.76531e-09 0.0183197 0)
(1.46254e-09 0.0240717 0)
(1.12604e-09 0.0288174 0)
(8.57269e-10 0.0325893 0)
(6.54385e-10 0.0354589 0)
(5.03072e-10 0.0375118 0)
(3.86356e-10 0.0388286 0)
(2.89912e-10 0.0394705 0)
(2.00804e-10 0.0394705 0)
(1.07038e-10 0.0388286 0)
(-7.75124e-14 0.0375118 0)
(-1.24901e-10 0.0354589 0)
(-2.68655e-10 0.0325893 0)
(-4.25216e-10 0.0288174 0)
(-5.69008e-10 0.0240717 0)
(-6.48644e-10 0.0183197 0)
(-6.07593e-10 0.011597 0)
(-1.66674e-10 0.00404271 0)
(9.23625e-10 0.00404271 0)
(2.37279e-09 0.011597 0)
(2.01998e-09 0.0183197 0)
(1.73611e-09 0.0240717 0)
(1.36806e-09 0.0288174 0)
(1.04654e-09 0.0325893 0)
(7.88839e-10 0.0354589 0)
(5.90493e-10 0.0375118 0)
(4.36855e-10 0.0388286 0)
(3.12512e-10 0.0394705 0)
(2.02665e-10 0.0394705 0)
(9.4441e-11 0.0388286 0)
(-1.97453e-11 0.0375118 0)
(-1.41024e-10 0.0354589 0)
(-2.62891e-10 0.0325893 0)
(-3.63489e-10 0.0288174 0)
(-3.92768e-10 0.0240717 0)
(-3.31428e-10 0.0183197 0)
(2.84763e-11 0.011597 0)
(1.69436e-10 0.00404271 0)
(4.09872e-10 0.0040427 0)
(1.6104e-09 0.011597 0)
(1.79571e-09 0.0183197 0)
(1.69697e-09 0.0240717 0)
(1.40724e-09 0.0288174 0)
(1.10194e-09 0.0325893 0)
(8.34153e-10 0.0354589 0)
(6.1794e-10 0.0375118 0)
(4.47168e-10 0.0388286 0)
(3.09049e-10 0.0394705 0)
(1.89208e-10 0.0394705 0)
(7.51711e-11 0.0388286 0)
(-3.99708e-11 0.0375118 0)
(-1.55994e-10 0.0354589 0)
(-2.62451e-10 0.0325893 0)
(-3.31474e-10 0.0288174 0)
(-3.04674e-10 0.0240717 0)
(-1.94531e-10 0.0183197 0)
(2.14809e-10 0.011597 0)
(2.38306e-10 0.00404271 0)
(3.62112e-10 0.0040427 0)
(1.32654e-09 0.011597 0)
(1.53417e-09 0.0183197 0)
(1.51209e-09 0.0240717 0)
(1.29835e-09 0.0288174 0)
(1.03501e-09 0.0325893 0)
(7.87339e-10 0.0354589 0)
(5.79137e-10 0.0375118 0)
(4.1149e-10 0.0388286 0)
(2.75254e-10 0.0394705 0)
(1.57589e-10 0.0394705 0)
(4.6853e-11 0.0388286 0)
(-6.44169e-11 0.0375118 0)
(-1.7759e-10 0.0354589 0)
(-2.84814e-10 0.0325893 0)
(-3.65725e-10 0.0288174 0)
(-3.7912e-10 0.0240717 0)
(-3.27089e-10 0.0183197 0)
(-1.6646e-10 0.011597 0)
(-6.03816e-12 0.00404271 0)
(3.09139e-10 0.0040427 0)
(1.00302e-09 0.011597 0)
(1.15339e-09 0.0183197 0)
(1.19593e-09 0.0240717 0)
(1.06414e-09 0.0288174 0)
(8.62371e-10 0.0325893 0)
(6.56711e-10 0.0354589 0)
(4.7753e-10 0.0375118 0)
(3.31279e-10 0.0388286 0)
(2.12234e-10 0.0394705 0)
(1.09491e-10 0.0394705 0)
(1.21537e-11 0.0388286 0)
(-8.8341e-11 0.0375118 0)
(-1.96274e-10 0.0354589 0)
(-3.09698e-10 0.0325893 0)
(-4.21678e-10 0.0288174 0)
(-5.11799e-10 0.0240717 0)
(-5.63315e-10 0.0183197 0)
(-7.61374e-10 0.011597 0)
(-3.61153e-10 0.00404271 0)
(-2.73969e-11 0.0040427 0)
(3.14523e-10 0.011597 0)
(6.47404e-10 0.0183197 0)
(7.75233e-10 0.0240717 0)
(7.32871e-10 0.0288174 0)
(6.06926e-10 0.0325893 0)
(4.58703e-10 0.0354589 0)
(3.24357e-10 0.0375118 0)
(2.14363e-10 0.0388286 0)
(1.25911e-10 0.0394705 0)
(5.02269e-11 0.0394705 0)
(-2.2804e-11 0.0388286 0)
(-1.02244e-10 0.0375118 0)
(-1.94174e-10 0.0354589 0)
(-3.00995e-10 0.0325893 0)
(-4.2357e-10 0.0288174 0)
(-5.48546e-10 0.0240717 0)
(-6.26474e-10 0.0183197 0)
(-8.44898e-10 0.011597 0)
(-3.6978e-10 0.00404271 0)
(3.05043e-11 0.0040427 0)
(1.58783e-10 0.011597 0)
(2.7865e-10 0.0183197 0)
(3.77452e-10 0.0240717 0)
(3.69332e-10 0.0288174 0)
(3.04646e-10 0.0325893 0)
(2.16931e-10 0.0354589 0)
(1.36506e-10 0.0375118 0)
(7.31405e-11 0.0388286 0)
(2.56022e-11 0.0394705 0)
(-1.29948e-11 0.0394705 0)
(-5.1412e-11 0.0388286 0)
(-9.79768e-11 0.0375118 0)
(-1.59169e-10 0.0354589 0)
(-2.39549e-10 0.0325893 0)
(-3.41753e-10 0.0288174 0)
(-4.52381e-10 0.0240717 0)
(-5.02851e-10 0.0183197 0)
(-6.08089e-10 0.011597 0)
(-2.45349e-10 0.00404271 0)
(1.75402e-10 0.0040427 0)
(1.91703e-10 0.011597 0)
(-1.28467e-11 0.0183197 0)
(-3.47377e-12 0.0240717 0)
(-8.93336e-12 0.0288174 0)
(-2.32033e-11 0.0325893 0)