/*--------------------------------*- C++ -*----------------------------------*\
| =========                 |                                                 |
| \\      /  F ield         | OpenFOAM: The Open Source CFD Toolbox           |
|  \\    /   O peration     | Version:  2.1.x                                 |
|   \\  /    A nd           | Web:      www.OpenFOAM.org                      |
|    \\/     M anipulation  |                                                 |
\*---------------------------------------------------------------------------*/
FoamFile
{
    version     2.0;
    format      ascii;
    class       volScalarField;
    location    "0.1";
    object      p;
}
// * * * * * * * * * * * * * * * * * * * * * * * * * * * * * * * * * * * * * //

dimensions      [0 2 -2 0 0 0 0];

internalField   nonuniform List<scalar> 
400
(
-148.542
-293.074
-312.533
-303.651
-301.343
-301.004
-300.198
-299.34
-298.666
-298.15
-297.746
-297.423
-297.164
-296.961
-296.808
-296.709
-296.664
-296.679
-296.76
-296.892
-293.237
-311.704
-307.911
-301.056
-299.656
-299.667
-299.273
-298.751
-298.304
-297.93
-297.614
-297.349
-297.13
-296.953
-296.819
-296.728
-296.681
-296.679
-296.725
-296.811
-312.819
-308.099
-301.832
-298.948
-298.701
-298.771
-298.535
-298.219
-297.932
-297.673
-297.439
-297.232
-297.053
-296.904
-296.787
-296.703
-296.656
-296.643
-296.668
-296.727
-303.976
-301.346
-299.107
-298.326
-298.25
-298.167
-297.974
-297.769
-297.582
-297.405
-297.237
-297.082
-296.942
-296.82
-296.719
-296.645
-296.597
-296.579
-296.591
-296.632
-301.697
-300.001
-298.97
-298.39
-298.032
-297.772
-297.567
-297.404
-297.266
-297.141
-297.022
-296.909
-296.803
-296.707
-296.625
-296.56
-296.516
-296.494
-296.495
-296.519
-301.389
-300.053
-299.114
-298.414
-297.895
-297.539
-297.297
-297.126
-297
-296.897
-296.808
-296.725
-296.647
-296.574
-296.509
-296.455
-296.416
-296.393
-296.387
-296.395
-300.596
-299.676
-298.915
-298.287
-297.778
-297.396
-297.12
-296.924
-296.785
-296.685
-296.608
-296.542
-296.484
-296.429
-296.38
-296.338
-296.305
-296.283
-296.271
-296.266
-299.735
-299.153
-298.61
-298.114
-297.669
-297.295
-296.999
-296.778
-296.62
-296.509
-296.431
-296.372
-296.325
-296.284
-296.247
-296.215
-296.189
-296.17
-296.155
-296.142
-299.05
-298.697
-298.321
-297.937
-297.557
-297.208
-296.909
-296.671
-296.494
-296.369
-296.283
-296.223
-296.18
-296.147
-296.119
-296.095
-296.075
-296.059
-296.044
-296.027
-298.519
-298.312
-298.054
-297.759
-297.44
-297.123
-296.834
-296.59
-296.401
-296.262
-296.166
-296.101
-296.057
-296.025
-296.002
-295.983
-295.967
-295.954
-295.942
-295.927
-298.098
-297.984
-297.811
-297.584
-297.318
-297.035
-296.763
-296.524
-296.329
-296.183
-296.078
-296.007
-295.958
-295.925
-295.9
-295.882
-295.867
-295.856
-295.847
-295.84
-297.762
-297.713
-297.597
-297.421
-297.196
-296.945
-296.694
-296.465
-296.273
-296.124
-296.015
-295.938
-295.884
-295.845
-295.815
-295.792
-295.774
-295.761
-295.756
-295.76
-297.501
-297.499
-297.421
-297.277
-297.082
-296.856
-296.624
-296.409
-296.226
-296.081
-295.971
-295.891
-295.831
-295.784
-295.746
-295.713
-295.686
-295.667
-295.662
-295.679
-297.317
-297.348
-297.291
-297.161
-296.981
-296.771
-296.555
-296.355
-296.183
-296.046
-295.94
-295.859
-295.795
-295.74
-295.689
-295.642
-295.599
-295.565
-295.554
-295.583
-297.226
-297.276
-297.217
-297.082
-296.901
-296.697
-296.491
-296.303
-296.143
-296.015
-295.916
-295.837
-295.77
-295.707
-295.642
-295.575
-295.508
-295.448
-295.419
-295.45
-297.262
-297.301
-297.212
-297.047
-296.849
-296.638
-296.434
-296.253
-296.103
-295.984
-295.892
-295.817
-295.75
-295.68
-295.602
-295.511
-295.411
-295.309
-295.237
-295.246
-297.484
-297.451
-297.283
-297.059
-296.823
-296.593
-296.384
-296.205
-296.061
-295.95
-295.864
-295.794
-295.729
-295.656
-295.565
-295.45
-295.307
-295.142
-294.988
-294.916
-298.009
-297.75
-297.421
-297.105
-296.814
-296.555
-296.335
-296.155
-296.014
-295.908
-295.829
-295.766
-295.706
-295.635
-295.537
-295.399
-295.208
-294.955
-294.645
-294.344
-299.138
-298.208
-297.555
-297.118
-296.773
-296.491
-296.263
-296.083
-295.946
-295.848
-295.779
-295.729
-295.684
-295.629
-295.542
-295.4
-295.174
-294.817
-294.197
-293.243
-301.103
-298.698
-297.533
-296.998
-296.642
-296.364
-296.142
-295.969
-295.841
-295.756
-295.707
-295.683
-295.67
-295.652
-295.609
-295.512
-295.307
-294.875
-293.776
-291.435
)
;

boundaryField
{
    movingWall
    {
        type            zeroGradient;
    }
    fixedWalls
    {
        type            zeroGradient;
    }
    frontAndBack
    {
        type            empty;
    }
}


// ************************************************************************* //
