/*--------------------------------*- C++ -*----------------------------------*\
| =========                 |                                                 |
| \\      /  F ield         | OpenFOAM: The Open Source CFD Toolbox           |
|  \\    /   O peration     | Version:  2.1.x                                 |
|   \\  /    A nd           | Web:      www.OpenFOAM.org                      |
|    \\/     M anipulation  |                                                 |
\*---------------------------------------------------------------------------*/
FoamFile
{
    version     2.0;
    format      ascii;
    class       surfaceScalarField;
    location    "0.1";
    object      phi;
}
// * * * * * * * * * * * * * * * * * * * * * * * * * * * * * * * * * * * * * //

dimensions      [0 3 -1 0 0 0 0];

internalField   nonuniform List<scalar> 
760
(
0.000498527
0.000498972
0.000232837
0.00026319
0.000122236
0.000108101
6.20369e-05
5.76989e-05
2.90542e-05
3.04827e-05
1.25694e-05
1.39848e-05
4.716e-06
5.3534e-06
9.27426e-07
1.28857e-06
-9.686e-07
-6.03977e-07
-1.91889e-06
-1.54973e-06
-2.34001e-06
-2.07889e-06
-2.40499e-06
-2.43504e-06
-2.19285e-06
-2.71214e-06
-1.74871e-06
-2.94415e-06
-1.11664e-06
-3.13208e-06
-3.61482e-07
-3.25517e-06
4.10231e-07
-3.27172e-06
1.0161e-06
-3.10588e-06
1.11635e-06
-2.60023e-06
-1.38364e-06
0.000262542
0.00023393
0.000260706
0.000262527
0.000190822
0.000175485
0.000130115
0.000115906
8.34963e-05
7.46011e-05
5.13925e-05
4.35886e-05
3.06127e-05
2.36331e-05
1.74334e-05
1.19679e-05
9.12411e-06
5.20529e-06
3.92443e-06
1.14997e-06
7.72502e-07
-1.42693e-06
-9.65617e-07
-3.19688e-06
-1.67124e-06
-4.50649e-06
-1.60143e-06
-5.51393e-06
-9.70575e-07
-6.26291e-06
-5.77054e-09
-6.71995e-06
1.01032e-06
-6.7878e-06
1.70156e-06
-6.2971e-06
1.56733e-06
-4.96598e-06
-2.3163e-06
0.000107587
0.000123843
0.000173615
0.000193999
0.000171481
0.000175118
0.000144253
0.000140635
0.000111979
0.000104375
8.17435e-05
7.13239e-05
5.69456e-05
4.5931e-05
3.82129e-05
2.82007e-05
2.47243e-05
1.61939e-05
1.53086e-05
8.06562e-06
8.9349e-06
2.44672e-06
4.82461e-06
-1.58663e-06
2.41445e-06
-4.59636e-06
1.27893e-06
-6.87842e-06
1.05789e-06
-8.54187e-06
1.39959e-06
-9.56165e-06
1.92015e-06
-9.80835e-06
2.18157e-06
-9.05849e-06
1.7e-06
-6.98439e-06
-3.1163e-06
5.741e-05
6.39329e-05
0.000114422
0.000134486
0.000137278
0.000149763
0.000134905
0.000140508
0.000119003
0.000117776
9.72792e-05
9.05479e-05
7.52309e-05
6.54794e-05
5.58567e-05
4.50749e-05
4.01603e-05
2.93903e-05
2.8084e-05
1.76419e-05
1.91547e-05
8.87603e-06
1.28106e-05
2.25746e-06
8.52873e-06
-2.81442e-06
5.84779e-06
-6.69746e-06
4.34865e-06
-9.54272e-06
3.6245e-06
-1.13375e-05
3.2579e-06
-1.19417e-05
2.81439e-06
-1.1115e-05
1.86096e-06
-8.53094e-06
-3.75533e-06
3.03627e-05
3.10702e-05
7.364e-05
8.8709e-05
0.000101742
0.000119161
0.000112855
0.000126895
0.000110307
0.000117824
9.87912e-05
9.95639e-05
8.30901e-05
7.86805e-05
6.67394e-05
5.89255e-05
5.17639e-05
4.18658e-05
3.90644e-05
2.78415e-05
2.88557e-05
1.65847e-05
2.09928e-05
7.62046e-06
1.51716e-05
5.06764e-07
1.10318e-05
-5.0577e-06
8.19495e-06
-9.20587e-06
6.27336e-06
-1.19159e-05
4.87199e-06
-1.30404e-05
3.59724e-06
-1.23402e-05
2.07962e-06
-9.51331e-06
-4.17571e-06
1.39554e-05
1.46149e-05
4.30272e-05
5.71372e-05
6.94503e-05
9.02375e-05
8.66227e-05
0.000107223
9.30685e-05
0.000108878
9.04328e-05
9.96996e-05
8.18197e-05
8.47935e-05
7.02468e-05
6.79984e-05
5.79622e-05
5.16504e-05
4.63798e-05
3.69239e-05
3.62379e-05
2.42266e-05
2.7807e-05
1.35513e-05
2.1072e-05
4.7418e-06
1.58572e-05
-2.34287e-06
1.19009e-05
-7.74956e-06
8.89497e-06
-1.141e-05
6.50978e-06
-1.31552e-05
4.41751e-06
-1.27479e-05
2.32276e-06
-9.91855e-06
-4.35294e-06
5.34656e-06
6.76833e-06
2.32826e-05
3.67012e-05
4.462e-05
6.64001e-05
6.24943e-05
8.68488e-05
7.34024e-05
9.54699e-05
7.6848e-05
9.3754e-05
7.42254e-05
8.49161e-05
6.75745e-05
7.21495e-05
5.88142e-05
5.79107e-05
4.94274e-05
4.38107e-05
4.04009e-05
3.07531e-05
3.22932e-05
1.9159e-05
2.53442e-05
9.19081e-06
1.95796e-05
9.21723e-07
1.4889e-05
-5.559e-06
1.10791e-05
-1.01001e-05
7.91181e-06
-1.24879e-05
5.1394e-06
-1.24755e-05
2.54469e-06
-9.82384e-06
-4.30826e-06
1.26361e-06
3.00473e-06
1.16792e-05
2.37856e-05
2.72058e-05
4.83735e-05
4.2786e-05
6.87687e-05
5.47453e-05
8.10106e-05
6.14739e-05
8.45254e-05
6.30659e-05
8.08242e-05
6.05571e-05
7.21582e-05
5.52868e-05
6.0681e-05
4.85102e-05
4.80873e-05
4.12179e-05
3.55454e-05
3.40923e-05
2.37845e-05
2.7541e-05
1.32421e-05
2.17561e-05
4.2066e-06
1.67742e-05
-3.07712e-06
1.2525e-05
-8.35096e-06
8.87106e-06
-1.13339e-05
5.64633e-06
-1.17508e-05
2.70474e-06
-9.38225e-06
-4.10352e-06
-6.70197e-07
1.17495e-06
4.86663e-06
1.57488e-05
1.52791e-05
3.5461e-05
2.74825e-05
5.40654e-05
3.84855e-05
6.75076e-05
4.63682e-05
7.41427e-05
5.04492e-05
7.42431e-05
5.09685e-05
6.9139e-05
4.86631e-05
6.04864e-05
4.44265e-05
4.98239e-05
3.90925e-05
3.83794e-05
3.33301e-05
2.70469e-05
2.76165e-05
1.64557e-05
2.22522e-05
7.07085e-06
1.73922e-05
-7.17091e-07
1.30776e-05
-6.53636e-06
9.26574e-06
-1.00221e-05
5.86338e-06
-1.08484e-05
2.77554e-06
-8.79441e-06
-3.82799e-06
-1.67585e-06
3.50822e-07
6.61622e-07
1.09113e-05
7.01553e-06
2.66071e-05
1.57961e-05
4.27848e-05
2.48999e-05
5.59038e-05
3.25661e-05
6.39765e-05
3.77762e-05
6.6533e-05
4.02428e-05
6.41725e-05
4.01994e-05
5.80297e-05
3.81604e-05
4.9363e-05
3.4727e-05
3.93128e-05
3.04642e-05
2.88097e-05
2.58392e-05
1.85807e-05
2.12019e-05
9.20806e-06
1.67886e-05
1.19621e-06
1.27311e-05
-4.97883e-06
9.06842e-06
-8.85941e-06
5.7641e-06
-1.00441e-05
2.74518e-06
-8.27551e-06
-3.5828e-06
-2.30369e-06
1.54519e-07
-2.1734e-06
8.28101e-06
1.06188e-06
2.08719e-05
6.80504e-06
3.45417e-05
1.37418e-05
4.6467e-05
2.04606e-05
5.47577e-05
2.58868e-05
5.86068e-05
2.94389e-05
5.81204e-05
3.09836e-05
5.3985e-05
3.07035e-05
4.71431e-05
2.89539e-05
3.85624e-05
2.61508e-05
2.91128e-05
2.2698e-05
1.95335e-05
1.89486e-05
1.04574e-05
1.51862e-05
2.45863e-06
1.1613e-05
-3.90566e-06
8.33775e-06
-8.08414e-06
5.36613e-06
-9.57249e-06
2.61521e-06
-8.02459e-06
-3.4676e-06
-2.80628e-06
4.60799e-07
-4.32285e-06
7.29759e-06
-3.49199e-06
1.7541e-05
-2.7193e-07
2.88216e-05
4.61886e-06
3.90762e-05
1.01314e-05
4.67452e-05
1.52721e-05
5.09661e-05
1.93275e-05
5.15651e-05
2.19242e-05
4.88883e-05
2.29847e-05
4.35826e-05
2.26415e-05
3.64057e-05
2.11503e-05
2.8104e-05
1.88235e-05
1.93602e-05
1.5986e-05
1.0795e-05
1.29441e-05
3.0005e-06
9.95757e-06
-3.41916e-06
7.2015e-06
-7.82812e-06
4.72008e-06
-9.59109e-06
2.39536e-06
-8.19989e-06
-3.57226e-06
-3.29368e-06
1.25448e-06
-6.1452e-06
7.64911e-06
-7.18108e-06
1.60769e-05
-5.94902e-06
2.50895e-05
-2.76685e-06
3.3394e-05
1.60245e-06
3.9876e-05
6.2833e-06
4.37853e-05
1.05235e-05
4.48249e-05
1.38066e-05
4.31052e-05
1.58677e-05
3.90215e-05
1.66549e-05
3.31185e-05
1.62731e-05
2.59858e-05
1.4933e-05
1.82004e-05
1.29122e-05
1.03158e-05
1.05244e-05
2.8882e-06
8.08291e-06
-3.47763e-06
5.84022e-06
-8.08547e-06
3.89681e-06
-1.01477e-05
2.09624e-06
-8.89933e-06
-3.97604e-06
-3.82039e-06
2.57489e-06
-7.79861e-06
9.12734e-06
-1.02328e-05
1.60111e-05
-1.04269e-05
2.27837e-05
-8.48156e-06
2.89487e-05
-4.98141e-06
3.38758e-05
-7.01766e-07
3.70057e-05
3.61115e-06
3.8012e-05
7.36679e-06
3.68496e-05
1.01761e-05
3.37122e-05
1.18456e-05
2.8949e-05
1.23485e-05
2.29829e-05
1.17932e-05
1.62557e-05
1.03982e-05
9.21082e-06
8.47198e-06
2.31442e-06
6.38147e-06
-3.8871e-06
4.48199e-06
-8.68601e-06
2.98004e-06
-1.11457e-05
1.72143e-06
-1.01407e-05
-4.7546e-06
-4.41447e-06
4.48938e-06
-9.29243e-06
1.15053e-05
-1.25961e-05
1.68148e-05
-1.35704e-05
2.12579e-05
-1.22803e-05
2.51586e-05
-9.24358e-06
2.83392e-05
-5.1678e-06
3.043e-05
-7.67808e-07
3.1112e-05
3.34423e-06
3.02375e-05
6.71052e-06
2.78459e-05
9.03908e-06
2.41205e-05
1.0195e-05
1.9327e-05
1.01875e-05
1.37632e-05
9.16356e-06
7.73473e-06
7.40762e-06
1.57037e-06
5.33223e-06
-4.31169e-06
3.42281e-06
-9.2766e-06
2.07699e-06
-1.22999e-05
1.2629e-06
-1.18267e-05
-5.99169e-06
-5.07609e-06
7.06548e-06
-1.04595e-05
1.43887e-05
-1.38928e-05
1.7748e-05
-1.48471e-05
1.97123e-05
-1.35424e-05
2.13538e-05
-1.0513e-05
2.28098e-05
-6.40892e-06
2.38259e-05
-1.88078e-06
2.40839e-05
2.49024e-06
2.33665e-05
6.23161e-06
2.16046e-05
8.9968e-06
1.88553e-05
1.05695e-05
1.52543e-05
1.0866e-05
1.09667e-05
9.94467e-06
6.15603e-06
8.03009e-06
9.84936e-07
5.54234e-06
-4.32397e-06
3.09547e-06
-9.32976e-06
1.37804e-06
-1.30825e-05
7.16997e-07
-1.36657e-05
-7.77471e-06
-5.70955e-06
1.0275e-05
-1.07844e-05
1.69635e-05
-1.32328e-05
1.76964e-05
-1.31977e-05
1.71772e-05
-1.12042e-05
1.68604e-05
-7.8046e-06
1.69102e-05
-3.54183e-06
1.70631e-05
1.06047e-06
1.69816e-05
5.51437e-06
1.64126e-05
9.38946e-06
1.52295e-05
1.23319e-05
1.34129e-05
1.40772e-05
1.1009e-05
1.44605e-05
8.08343e-06
1.34347e-05
4.68187e-06
1.11088e-05
8.10835e-07
7.81922e-06
-3.53437e-06
4.22037e-06
-8.23088e-06
1.32641e-06
-1.26885e-05
1.65829e-07
-1.5005e-05
-1.01089e-05
-5.87366e-06
1.36487e-05
-8.90714e-06
1.7497e-05
-8.79305e-06
1.50823e-05
-6.81248e-06
1.26966e-05
-3.70684e-06
1.12547e-05
1.28606e-07
1.05748e-05
4.39267e-06
1.02991e-05
8.77846e-06
1.00958e-05
1.29561e-05
9.735e-06
1.65916e-05
9.09403e-06
1.9373e-05
8.13147e-06
2.10307e-05
6.85133e-06
2.13485e-05
5.26563e-06
2.01737e-05
3.35665e-06
1.74447e-05
1.03985e-06
1.32694e-05
-1.85908e-06
8.08934e-06
-5.55082e-06
3.01421e-06
-1.01134e-05
3.77256e-08
-1.45285e-05
-1.25712e-05
-3.54891e-06
1.46976e-05
-1.155e-06
1.2603e-05
3.00159e-06
8.4257e-06
7.09508e-06
6.10315e-06
1.0907e-05
4.94282e-06
1.45701e-05
4.41166e-06
1.8175e-05
4.19413e-06
2.16865e-05
4.0843e-06
2.49618e-05
3.95978e-06
2.77959e-05
3.75987e-06
2.99644e-05
3.46305e-06
3.12484e-05
3.06734e-06
3.14418e-05
2.57216e-06
3.03403e-05
1.95818e-06
2.77207e-05
1.15946e-06
2.33611e-05
5.71097e-10
1.70936e-05
-1.78331e-06
9.29449e-06
-4.81433e-06
2.06384e-06
-9.79791e-06
-1.30073e-05
1.21976e-05
2.23006e-05
2.82263e-05
3.18295e-05
3.42723e-05
3.6184e-05
3.78781e-05
3.94624e-05
4.09222e-05
4.21821e-05
4.31451e-05
4.37125e-05
4.37846e-05
4.32428e-05
4.19023e-05
3.94028e-05
3.51195e-05
2.78052e-05
1.55073e-05
)
;

boundaryField
{
    movingWall
    {
        type            calculated;
        value           uniform 0;
    }
    fixedWalls
    {
        type            calculated;
        value           uniform 0;
    }
    frontAndBack
    {
        type            empty;
        value           nonuniform 0();
    }
}


// ************************************************************************* //
