/*--------------------------------*- C++ -*----------------------------------*\
| =========                 |                                                 |
| \\      /  F ield         | OpenFOAM: The Open Source CFD Toolbox           |
|  \\    /   O peration     | Version:  2.1.x                                 |
|   \\  /    A nd           | Web:      www.OpenFOAM.org                      |
|    \\/     M anipulation  |                                                 |
\*---------------------------------------------------------------------------*/
FoamFile
{
    version     2.0;
    format      ascii;
    class       volVectorField;
    location    "0.1";
    object      U;
}
// * * * * * * * * * * * * * * * * * * * * * * * * * * * * * * * * * * * * * //

dimensions      [0 1 -1 0 0 0 0];

internalField   nonuniform List<vector> 
400
(
(1.83398 1.83417 0)
(8.93007 1.77784 0)
(5.00253 0.905393 0)
(1.57833 0.480039 0)
(0.674401 0.245603 0)
(0.366909 0.0969496 0)
(0.156659 0.0209258 0)
(0.043729 -0.0110609 0)
(-0.00800024 -0.0227286 0)
(-0.0330316 -0.026634 0)
(-0.0451908 -0.0281157 0)
(-0.0492961 -0.0290044 0)
(-0.0473841 -0.0298824 0)
(-0.0404954 -0.0308649 0)
(-0.0294043 -0.0318488 0)
(-0.0151087 -0.0325866 0)
(0.000848336 -0.0326545 0)
(0.0158845 -0.0312467 0)
(0.0240292 -0.0265353 0)
(0.0126459 -0.0142118 0)
(1.77471 8.94204 0)
(6.46591 6.48218 0)
(5.14897 3.56201 0)
(3.01332 1.98836 0)
(1.93926 1.10312 0)
(1.2872 0.555837 0)
(0.785842 0.249956 0)
(0.451376 0.0938163 0)
(0.245888 0.0151229 0)
(0.118039 -0.0266195 0)
(0.0385609 -0.0510756 0)
(-0.00797962 -0.0673106 0)
(-0.0308583 -0.079439 0)
(-0.0360376 -0.0891069 0)
(-0.027946 -0.0965857 0)
(-0.0107916 -0.101242 0)
(0.010594 -0.101629 0)
(0.0300052 -0.0951672 0)
(0.0375534 -0.0770432 0)
(0.0183851 -0.0378679 0)
(0.900323 5.03326 0)
(3.54592 5.19891 0)
(3.70606 3.75743 0)
(3.1065 2.71043 0)
(2.51853 1.86654 0)
(1.92167 1.17833 0)
(1.36218 0.694748 0)
(0.922572 0.386542 0)
(0.6058 0.194958 0)
(0.382964 0.0741694 0)
(0.229555 -0.0049916 0)
(0.127929 -0.0599576 0)
(0.06512 -0.100411 0)
(0.031576 -0.131079 0)
(0.0197317 -0.153503 0)
(0.0226832 -0.167042 0)
(0.033299 -0.169331 0)
(0.0436383 -0.156274 0)
(0.0433941 -0.121519 0)
(0.0195541 -0.0552466 0)
(0.476252 1.61598 0)
(1.97652 3.09289 0)
(2.66713 3.19932 0)
(2.77689 2.86493 0)
(2.57462 2.29154 0)
(2.17908 1.66944 0)
(1.71823 1.14105 0)
(1.29287 0.741569 0)
(0.940949 0.45366 0)
(0.665391 0.249481 0)
(0.458167 0.103732 0)
(0.308201 -0.0028373 0)
(0.20441 -0.0828999 0)
(0.13696 -0.143551 0)
(0.0971768 -0.187637 0)
(0.0769255 -0.21484 0)
(0.0680993 -0.222415 0)
(0.0623457 -0.205598 0)
(0.0501061 -0.157712 0)
(0.020521 -0.0696466 0)
(0.243797 0.713264 0)
(1.09641 2.03655 0)
(1.83582 2.64699 0)
(2.21947 2.70979 0)
(2.28703 2.40998 0)
(2.12248 1.94948 0)
(1.8284 1.47706 0)
(1.49419 1.06169 0)
(1.17453 0.72286 0)
(0.895693 0.457226 0)
(0.666836 0.25222 0)
(0.487469 0.0938588 0)
(0.352408 -0.0291238 0)
(0.254691 -0.123913 0)
(0.186834 -0.193702 0)
(0.141159 -0.238313 0)
(0.109865 -0.254912 0)
(0.0851196 -0.238668 0)
(0.058663 -0.183224 0)
(0.0219592 -0.0803398 0)
(0.0964047 0.407554 0)
(0.552552 1.39785 0)
(1.15862 2.08043 0)
(1.61576 2.35917 0)
(1.84799 2.29916 0)
(1.87168 2.02867 0)
(1.74301 1.66746 0)
(1.528 1.29449 0)
(1.28067 0.951967 0)
(1.03709 0.657072 0)
(0.817722 0.411941 0)
(0.631655 0.211715 0)
(0.480671 0.0500626 0)
(0.362375 -0.0778212 0)
(0.272131 -0.174039 0)
(0.204095 -0.237887 0)
(0.151808 -0.2663 0)
(0.108627 -0.254555 0)
(0.0679257 -0.196903 0)
(0.023682 -0.086289 0)
(0.0208412 0.197894 0)
(0.247932 0.905272 0)
(0.681712 1.54378 0)
(1.10232 1.93631 0)
(1.39785 2.05512 0)
(1.53694 1.95618 0)
(1.53539 1.72189 0)
(1.43222 1.42429 0)
(1.26953 1.11379 0)
(1.08208 0.820184 0)
(0.894366 0.557725 0)
(0.721305 0.331053 0)
(0.570291 0.140326 0)
(0.443514 -0.0152338 0)
(0.339801 -0.13536 0)
(0.255904 -0.218008 0)
(0.187345 -0.259461 0)
(0.129091 -0.254956 0)
(0.0762774 -0.199421 0)
(0.0253276 -0.0874158 0)
(-0.0111654 0.0850311 0)
(0.0916077 0.576164 0)
(0.376143 1.12001 0)
(0.712273 1.54029 0)
(1.00046 1.76316 0)
(1.18977 1.79234 0)
(1.26894 1.67319 0)
(1.253 1.46063 0)
(1.16832 1.20217 0)
(1.04218 0.932272 0)
(0.897438 0.67277 0)
(0.750732 0.435871 0)
(0.612658 0.227935 0)
(0.488874 0.0527141 0)
(0.381388 -0.08645 0)
(0.289651 -0.185527 0)
(0.211395 -0.23966 0)
(0.143341 -0.243722 0)
(0.0822635 -0.193196 0)
(0.0265556 -0.0845916 0)
(-0.0230964 0.0340272 0)
(0.0117483 0.375483 0)
(0.183904 0.815245 0)
(0.427986 1.21058 0)
(0.672944 1.47696 0)
(0.86777 1.58788 0)
(0.987607 1.55877 0)
(1.03033 1.42481 0)
(1.00785 1.2245 0)
(0.937877 0.991018 0)
(0.838395 0.749158 0)
(0.724667 0.515836 0)
(0.608103 0.302184 0)
(0.496315 0.116008 0)
(0.393676 -0.0362141 0)
(0.301995 -0.14816 0)
(0.221102 -0.213424 0)
(0.149386 -0.2261 0)
(0.0849016 -0.181914 0)
(0.0271253 -0.0793885 0)
(-0.027534 0.0107979 0)
(-0.03223 0.253647 0)
(0.0595105 0.603259 0)
(0.221991 0.952348 0)
(0.411452 1.22346 0)
(0.586145 1.37753 0)
(0.717656 1.41035 0)
(0.793876 1.34007 0)
(0.81568 1.19438 0)
(0.791738 1.00159 0)
(0.733977 0.785902 0)
(0.654453 0.566117 0)
(0.563616 0.356246 0)
(0.469623 0.167082 0)
(0.378272 0.00777502 0)
(0.293188 -0.113105 0)
(0.216013 -0.187347 0)
(0.146603 -0.207799 0)
(0.0837738 -0.169882 0)
(0.0269141 -0.0737699 0)
(-0.0298723 0.00199925 0)
(-0.0602536 0.182702 0)
(-0.0262212 0.461485 0)
(0.0695384 0.759567 0)
(0.204108 1.01301 0)
(0.347227 1.18153 0)
(0.472599 1.25068 0)
(0.563673 1.22637 0)
(0.614024 1.12632 0)
(0.624979 0.972523 0)
(0.60258 0.786337 0)
(0.554966 0.586141 0)
(0.490554 0.386973 0)
(0.417004 0.201299 0)
(0.34072 0.0401442 0)
(0.266613 -0.0860171 0)
(0.197861 -0.167074 0)
(0.135623 -0.194104 0)
(0.078964 -0.161371 0)
(0.0258952 -0.069791 0)
(-0.0320866 0.00366107 0)
(-0.081755 0.148636 0)
(-0.0908547 0.373831 0)
(-0.0479712 0.622594 0)
(0.0383873 0.846058 0)
(0.147984 1.00896 0)
(0.258744 1.09354 0)
(0.353083 1.09819 0)
(0.420328 1.03271 0)
(0.456445 0.912804 0)
(0.462465 0.755805 0)
(0.442639 0.5781 0)
(0.402883 0.394191 0)
(0.349706 0.216897 0)
(0.289525 0.0581327 0)
(0.228145 -0.0703006 0)
(0.17016 -0.156463 0)
(0.118061 -0.189091 0)
(0.0708945 -0.160057 0)
(0.0240831 -0.0693757 0)
(-0.0349753 0.0148813 0)
(-0.101269 0.14367 0)
(-0.144074 0.328329 0)
(-0.142123 0.530797 0)
(-0.0945909 0.717436 0)
(-0.0145366 0.861147 0)
(0.0800683 0.945215 0)
(0.172216 0.96432 0)
(0.249084 0.92257 0)
(0.303048 0.830147 0)
(0.331235 0.700038 0)
(0.334443 0.545702 0)
(0.316021 0.379925 0)
(0.28098 0.214687 0)
(0.235354 0.061726 0)
(0.185608 -0.066629 0)
(0.137827 -0.156908 0)
(0.0962421 -0.194968 0)
(0.0601157 -0.168596 0)
(0.0214524 -0.0742274 0)
(-0.0389909 0.0361164 0)
(-0.120886 0.163147 0)
(-0.190077 0.315425 0)
(-0.217791 0.473346 0)
(-0.19801 0.618791 0)
(-0.139777 0.734235 0)
(-0.0581447 0.806383 0)
(0.0309385 0.828684 0)
(0.113819 0.801473 0)
(0.180704 0.730406 0)
(0.22591 0.624314 0)
(0.247393 0.493323 0)
(0.246091 0.347722 0)
(0.225342 0.197657 0)
(0.190492 0.0535965 0)
(0.148475 -0.0726501 0)
(0.107078 -0.166761 0)
(0.0730906 -0.211423 0)
(0.0471284 -0.188271 0)
(0.0178335 -0.0858975 0)
(-0.0445424 0.0685739 0)
(-0.14119 0.203253 0)
(-0.228592 0.325751 0)
(-0.273247 0.438467 0)
(-0.268211 0.539495 0)
(-0.221612 0.62105 0)
(-0.146951 0.673994 0)
(-0.0590482 0.691811 0)
(0.0285348 0.672376 0)
(0.105014 0.617809 0)
(0.162928 0.533273 0)
(0.198073 0.425573 0)
(0.209228 0.30211 0)
(0.197947 0.170464 0)
(0.168512 0.038783 0)
(0.127954 -0.0829525 0)
(0.0858161 -0.180851 0)
(0.05252 -0.234875 0)
(0.0324317 -0.218505 0)
(0.0128382 -0.105978 0)
(-0.0519562 0.113919 0)
(-0.160974 0.258551 0)
(-0.254079 0.347347 0)
(-0.299065 0.41199 0)
(-0.293439 0.466879 0)
(-0.247024 0.512533 0)
(-0.172539 0.543209 0)
(-0.0833148 0.552628 0)
(0.00812985 0.536999 0)
(0.0911582 0.495806 0)
(0.157553 0.431243 0)
(0.201681 0.34716 0)
(0.220512 0.248085 0)
(0.213699 0.138671 0)
(0.183904 0.0239062 0)
(0.137409 -0.0895271 0)
(0.0848509 -0.190239 0)
(0.0408967 -0.257457 0)
(0.0173563 -0.255924 0)
(0.00605242 -0.136441 0)
(-0.0604429 0.174615 0)
(-0.174585 0.318604 0)
(-0.251827 0.362026 0)
(-0.274812 0.375674 0)
(-0.251907 0.38657 0)
(-0.195339 0.399349 0)
(-0.116222 0.409483 0)
(-0.025209 0.410478 0)
(0.0675045 0.397447 0)
(0.152644 0.368169 0)
(0.222302 0.322768 0)
(0.270245 0.262837 0)
(0.292118 0.190483 0)
(0.285671 0.107604 0)
(0.251255 0.0157285 0)
(0.192915 -0.0829587 0)
(0.120231 -0.182292 0)
(0.0505747 -0.265398 0)
(0.00694217 -0.292292 0)
(-0.00168926 -0.180347 0)
(-0.063036 0.251359 0)
(-0.163031 0.360577 0)
(-0.188212 0.341306 0)
(-0.162664 0.307318 0)
(-0.10939 0.284909 0)
(-0.0385397 0.274994 0)
(0.0438254 0.271517 0)
(0.131823 0.267591 0)
(0.219034 0.258101 0)
(0.298705 0.240279 0)
(0.364268 0.213273 0)
(0.409839 0.177364 0)
(0.430509 0.133095 0)
(0.422508 0.0804497 0)
(0.383494 0.0182346 0)
(0.313503 -0.0558328 0)
(0.216835 -0.143046 0)
(0.106932 -0.237803 0)
(0.017735 -0.308724 0)
(-0.00293616 -0.238338 0)
(-0.0193958 0.306186 0)
(-0.0612219 0.331294 0)
(0.0112521 0.252517 0)
(0.101102 0.194238 0)
(0.180833 0.161538 0)
(0.254911 0.145684 0)
(0.327524 0.138817 0)
(0.399196 0.134966 0)
(0.46792 0.130278 0)
(0.530034 0.122724 0)
(0.581102 0.111528 0)
(0.616614 0.0965787 0)
(0.632315 0.0778338 0)
(0.624134 0.0546857 0)
(0.587904 0.0251975 0)
(0.519174 -0.0148312 0)
(0.412251 -0.0727346 0)
(0.26331 -0.157455 0)
(0.10404 -0.264032 0)
(0.0419932 -0.273453 0)
(0.286532 0.159836 0)
(0.359431 0.146161 0)
(0.502265 0.0952616 0)
(0.60412 0.064088 0)
(0.664017 0.0483448 0)
(0.705824 0.0410798 0)
(0.741141 0.0380535 0)
(0.773832 0.0367224 0)
(0.804491 0.0356597 0)
(0.832055 0.0341736 0)
(0.854701 0.0320055 0)
(0.870426 0.0290997 0)
(0.87726 0.0254059 0)
(0.873102 0.0206588 0)
(0.855125 0.0140478 0)
(0.818349 0.00358293 0)
(0.751719 -0.0152172 0)
(0.631045 -0.0501707 0)
(0.452517 -0.108374 0)
(0.324313 -0.13769 0)
)
;

boundaryField
{
    movingWall
    {
        type            fixedValue;
        value           uniform (1 0 0);
    }
    fixedWalls
    {
        type            fixedValue;
        value           uniform (0 0 0);
    }
    frontAndBack
    {
        type            empty;
    }
}


// ************************************************************************* //
