/*--------------------------------*- C++ -*----------------------------------*\
| =========                 |                                                 |
| \\      /  F ield         | OpenFOAM: The Open Source CFD Toolbox           |
|  \\    /   O peration     | Version:  2.1.x                                 |
|   \\  /    A nd           | Web:      www.OpenFOAM.org                      |
|    \\/     M anipulation  |                                                 |
\*---------------------------------------------------------------------------*/
FoamFile
{
    version     2.0;
    format      ascii;
    class       surfaceScalarField;
    location    "0.3";
    object      phi;
}
// * * * * * * * * * * * * * * * * * * * * * * * * * * * * * * * * * * * * * //

dimensions      [0 3 -1 0 0 0 0];

internalField   nonuniform List<scalar> 
760
(
0.000498519
0.000498981
0.000232819
0.000263201
0.000122211
0.000108108
6.20091e-05
5.77017e-05
2.90265e-05
3.04826e-05
1.25434e-05
1.39831e-05
4.69191e-06
5.35152e-06
9.04501e-07
1.28737e-06
-9.91287e-07
-6.04253e-07
-1.94219e-06
-1.54911e-06
-2.36436e-06
-2.07783e-06
-2.42996e-06
-2.43438e-06
-2.21705e-06
-2.7129e-06
-1.76997e-06
-2.94708e-06
-1.13272e-06
-3.13727e-06
-3.70975e-07
-3.26177e-06
4.07075e-07
-3.27807e-06
1.01711e-06
-3.11003e-06
1.1181e-06
-2.60094e-06
-1.38186e-06
0.000262532
0.000233948
0.000260676
0.000262557
0.000190769
0.000175515
0.000130042
0.000115928
8.34127e-05
7.46121e-05
5.13042e-05
4.35916e-05
3.05234e-05
2.36323e-05
1.73443e-05
1.19665e-05
9.03521e-06
5.20483e-06
3.83527e-06
1.15079e-06
6.83402e-07
-1.42599e-06
-1.05282e-06
-3.19818e-06
-1.75296e-06
-4.51276e-06
-1.67288e-06
-5.52714e-06
-1.02705e-06
-6.28308e-06
-4.43469e-08
-6.74447e-06
9.89349e-07
-6.81179e-06
1.69417e-06
-6.3149e-06
1.56683e-06
-4.97363e-06
-2.31499e-06
0.000107579
0.000123869
0.000173584
0.000194053
0.000171418
0.00017518
0.000144157
0.00014069
0.000111855
0.000104414
8.16007e-05
7.13461e-05
5.67914e-05
4.59417e-05
3.80526e-05
2.82053e-05
2.45612e-05
1.61962e-05
1.5145e-05
8.06705e-06
8.77316e-06
2.44579e-06
4.66863e-06
-1.59367e-06
2.26986e-06
-4.61401e-06
1.15253e-06
-6.90982e-06
9.56175e-07
-8.5867e-06
1.32676e-06
-9.61502e-06
1.87631e-06
-9.86132e-06
2.16191e-06
-9.10052e-06
1.69554e-06
-7.0073e-06
-3.11944e-06
5.74066e-05
6.39622e-05
0.000114399
0.00013456
0.000137221
0.000149859
0.000134807
0.000140604
0.000118865
0.000117856
9.71056e-05
9.06052e-05
7.50308e-05
6.55164e-05
5.56389e-05
4.50971e-05
3.99321e-05
2.9403e-05
2.78517e-05
1.76475e-05
1.89242e-05
8.87328e-06
1.25887e-05
2.2418e-06
8.32339e-06
-2.84873e-06
5.66786e-06
-6.7543e-06
4.20225e-06
-9.62109e-06
3.51709e-06
-1.14298e-05
3.19033e-06
-1.20345e-05
2.78165e-06
-1.11918e-05
1.85219e-06
-8.57786e-06
-3.76726e-06
3.03622e-05
3.11e-05
7.36277e-05
8.87949e-05
0.000101702
0.000119284
0.000112774
0.000127032
0.000110179
0.000117951
9.86163e-05
9.9668e-05
8.28745e-05
7.87582e-05
6.64925e-05
5.89792e-05
5.14956e-05
4.18999e-05
3.87846e-05
2.78585e-05
2.85744e-05
1.65835e-05
2.07201e-05
7.59617e-06
1.49183e-05
4.53055e-07
1.08088e-05
-5.14481e-06
8.0119e-06
-9.32423e-06
6.13703e-06
-1.2055e-05
4.78413e-06
-1.31816e-05
3.55304e-06
-1.24607e-05
2.06699e-06
-9.59179e-06
-4.20028e-06
1.39565e-05
1.46435e-05
4.30236e-05
5.72279e-05
6.94285e-05
9.03792e-05
8.65675e-05
0.000107393
9.29683e-05
0.00010905
9.0282e-05
9.98542e-05
8.16199e-05
8.49202e-05
7.00045e-05
6.80945e-05
5.76877e-05
5.17168e-05
4.60848e-05
3.69614e-05
3.59351e-05
2.42332e-05
2.75097e-05
1.35216e-05
2.07934e-05
4.6694e-06
1.561e-05
-2.46145e-06
1.16963e-05
-7.91054e-06
8.74094e-06
-1.15996e-05
6.40894e-06
-1.33496e-05
4.36563e-06
-1.29174e-05
2.30741e-06
-1.00335e-05
-4.39287e-06
5.34827e-06
6.79519e-06
2.32846e-05
3.67916e-05
4.46137e-05
6.65501e-05
6.24661e-05
8.70405e-05
7.33384e-05
9.56777e-05
7.67381e-05
9.39544e-05
7.40658e-05
8.50926e-05
6.73675e-05
7.22928e-05
5.85676e-05
5.80166e-05
4.91525e-05
4.38765e-05
4.01114e-05
3.07743e-05
3.20036e-05
1.91294e-05
2.50693e-05
9.10375e-06
1.93333e-05
7.74531e-07
1.46834e-05
-5.76061e-06
1.09227e-05
-1.03389e-05
7.80822e-06
-1.27351e-05
5.08528e-06
-1.26944e-05
2.5283e-06
-9.97654e-06
-4.36455e-06
1.26545e-06
3.02976e-06
1.16849e-05
2.38721e-05
2.72118e-05
4.85232e-05
4.27825e-05
6.89697e-05
5.47191e-05
8.12411e-05
6.14127e-05
8.47608e-05
6.29617e-05
8.10437e-05
6.04078e-05
7.23466e-05
5.50963e-05
6.08281e-05
4.82873e-05
4.81854e-05
4.09748e-05
3.55868e-05
3.38432e-05
2.3761e-05
2.73004e-05
1.31466e-05
2.15378e-05
4.03717e-06
1.659e-05
-3.31279e-06
1.23835e-05
-8.63247e-06
8.7763e-06
-1.16279e-05
5.59621e-06
-1.20143e-05
2.6893e-06
-9.56962e-06
-4.17524e-06
-6.67833e-07
1.19764e-06
4.87559e-06
1.58287e-05
1.52954e-05
3.56034e-05
2.75007e-05
5.42644e-05
3.84952e-05
6.77465e-05
4.63572e-05
7.43988e-05
5.04074e-05
7.44935e-05
5.08901e-05
6.9364e-05
4.85479e-05
6.06703e-05
4.42796e-05
4.99538e-05
3.89229e-05
3.84435e-05
3.31495e-05
2.70344e-05
2.74373e-05
1.63587e-05
2.20865e-05
6.88802e-06
1.72502e-05
-9.76515e-07
1.29671e-05
-6.84937e-06
9.1909e-06
-1.03516e-05
5.82328e-06
-1.11467e-05
2.763e-06
-9.00933e-06
-3.91222e-06
-1.67277e-06
3.70445e-07
6.74158e-07
1.09818e-05
7.04115e-06
2.67364e-05
1.58334e-05
4.29722e-05
2.4942e-05
5.61379e-05
3.26029e-05
6.4238e-05
3.77971e-05
6.67993e-05
4.02398e-05
6.44213e-05
4.0169e-05
5.82412e-05
3.81034e-05
4.95193e-05
3.46485e-05
3.93984e-05
3.03718e-05
2.88111e-05
2.57416e-05
1.8489e-05
2.11078e-05
9.02186e-06
1.67054e-05
9.25888e-07
1.26646e-05
-5.30859e-06
9.02231e-06
-9.2093e-06
5.73884e-06
-1.03632e-05
2.7371e-06
-8.50759e-06
-3.6751e-06
-2.29947e-06
1.69923e-07
-2.15695e-06
8.33931e-06
1.09629e-06
2.09831e-05
6.8591e-06
3.47094e-05
1.38122e-05
4.66847e-05
2.05399e-05
5.50103e-05
2.59657e-05
5.88735e-05
2.95087e-05
5.83783e-05
3.10383e-05
5.42115e-05
3.07405e-05
4.73172e-05
2.89736e-05
3.86652e-05
2.61561e-05
2.91287e-05
2.26927e-05
1.94524e-05
1.89367e-05
1.02779e-05
1.51713e-05
2.19132e-06
1.15982e-05
-4.23554e-06
8.32571e-06
-8.43675e-06
5.35863e-06
-9.89609e-06
2.61251e-06
-8.26146e-06
-3.56259e-06
-2.8009e-06
4.70809e-07
-4.30285e-06
7.34128e-06
-3.45018e-06
1.76305e-05
-2.04314e-07
2.89635e-05
4.71182e-06
3.92686e-05
1.02453e-05
4.69768e-05
1.53998e-05
5.1219e-05
1.9461e-05
5.18172e-05
2.20562e-05
4.91163e-05
2.31097e-05
4.37637e-05
2.27559e-05
3.65191e-05
2.12519e-05
2.81327e-05
1.89109e-05
1.92934e-05
1.60578e-05
1.0631e-05
1.29994e-05
2.74969e-06
9.99629e-06
-3.7324e-06
7.2249e-06
-8.16535e-06
4.73105e-06
-9.90223e-06
2.39824e-06
-8.42864e-06
-3.66435e-06
-3.28756e-06
1.25835e-06
-6.12314e-06
7.67686e-06
-7.13509e-06
1.61425e-05
-5.87354e-06
2.5202e-05
-2.65959e-06
3.35546e-05
1.74001e-06
4.00772e-05
6.44659e-06
4.40124e-05
1.07059e-05
4.50578e-05
1.40008e-05
4.33215e-05
1.60662e-05
3.91982e-05
1.68508e-05
3.32345e-05
1.64597e-05
2.60238e-05
1.51036e-05
1.81495e-05
1.30603e-05
1.01743e-05
1.06445e-05
2.66549e-06
8.17126e-06
-3.75916e-06
5.89658e-06
-8.39065e-06
3.92496e-06
-1.04306e-05
2.10428e-06
-9.10795e-06
-4.06007e-06
-3.81441e-06
2.57275e-06
-7.7772e-06
9.13963e-06
-1.01877e-05
1.60529e-05
-1.03513e-05
2.28656e-05
-8.37091e-06
2.90742e-05
-4.83434e-06
3.40406e-05
-5.20054e-07
3.71981e-05
3.82293e-06
3.82149e-05
7.60197e-06
3.70424e-05
1.04264e-05
3.38737e-05
1.21017e-05
2.90592e-05
1.26001e-05
2.30254e-05
1.20292e-05
1.62205e-05
1.06075e-05
9.09602e-06
8.64465e-06
2.12833e-06
6.5106e-06
-4.12511e-06
4.56562e-06
-8.94565e-06
3.02242e-06
-1.13874e-05
1.73373e-06
-1.03192e-05
-4.82634e-06
-4.40983e-06
4.48259e-06
-9.27508e-06
1.15049e-05
-1.2558e-05
1.68358e-05
-1.35037e-05
2.13114e-05
-1.21787e-05
2.52492e-05
-9.10295e-06
2.84649e-05
-4.98704e-06
3.05822e-05
-5.49076e-07
3.12769e-05
3.59562e-06
3.03977e-05
6.9864e-06
2.79829e-05
9.32874e-06
2.42169e-05
1.04856e-05
1.93686e-05
1.04647e-05
1.37413e-05
9.41282e-06
7.64791e-06
7.61564e-06
1.42551e-06
5.48937e-06
-4.49885e-06
3.52548e-06
-9.48175e-06
2.12944e-06
-1.24913e-05
1.27825e-06
-1.19681e-05
-6.04809e-06
-5.07387e-06
7.05648e-06
-1.04493e-05
1.43803e-05
-1.38671e-05
1.77536e-05
-1.47978e-05
1.9742e-05
-1.34613e-05
2.14127e-05
-1.03937e-05
2.28973e-05
-6.24763e-06
2.39361e-05
-1.67719e-06
2.42064e-05
2.73258e-06
2.34879e-05
6.50529e-06
2.17102e-05
9.29081e-06
1.89313e-05
1.08698e-05
1.52896e-05
1.11565e-05
1.09547e-05
1.02087e-05
6.0957e-06
8.25244e-06
8.81805e-07
5.71165e-06
-4.45806e-06
3.20687e-06
-9.47698e-06
1.43537e-06
-1.32198e-05
7.33944e-07
-1.37666e-05
-7.81415e-06
-5.71022e-06
1.02667e-05
-1.07826e-05
1.69526e-05
-1.32223e-05
1.76934e-05
-1.31703e-05
1.719e-05
-1.11509e-05
1.68932e-05
-7.71712e-06
1.69635e-05
-3.41422e-06
1.71332e-05
1.23068e-06
1.70615e-05
5.72545e-06
1.64932e-05
9.63523e-06
1.53004e-05
1.26019e-05
1.34646e-05
1.43575e-05
1.1034e-05
1.47349e-05
8.07732e-06
1.36862e-05
4.6444e-06
1.1322e-05
7.4603e-07
7.98245e-06
-3.61855e-06
4.32836e-06
-8.32289e-06
1.38233e-06
-1.27738e-05
1.82515e-07
-1.50668e-05
-1.01316e-05
-5.87662e-06
1.36433e-05
-8.91253e-06
1.74885e-05
-8.79627e-06
1.50771e-05
-6.80608e-06
1.26998e-05
-3.68185e-06
1.1269e-05
1.81014e-07
1.06006e-05
4.47954e-06
1.03347e-05
8.90366e-06
1.01374e-05
1.31194e-05
9.77742e-06
1.67882e-05
9.13163e-06
1.95938e-05
8.15893e-06
2.12632e-05
6.86459e-06
2.1578e-05
5.26256e-06
2.0385e-05
3.33742e-06
1.76241e-05
1.00693e-06
1.34068e-05
-1.90128e-06
8.18021e-06
-5.59628e-06
3.06124e-06
-1.01548e-05
5.18241e-08
-1.45574e-05
-1.25798e-05
-3.55253e-06
1.46958e-05
-1.16342e-06
1.25994e-05
2.99093e-06
8.42277e-06
7.08781e-06
6.10287e-06
1.09105e-05
4.94627e-06
1.4592e-05
4.41903e-06
1.82218e-05
4.20483e-06
2.17621e-05
4.09708e-06
2.50666e-05
3.97291e-06
2.79268e-05
3.77145e-06
3.01144e-05
3.47135e-06
3.14079e-05
3.0711e-06
3.15996e-05
2.57083e-06
3.0485e-05
1.95199e-06
2.78426e-05
1.14934e-06
2.34534e-05
-1.20434e-08
1.71535e-05
-1.79636e-06
9.32439e-06
-4.82574e-06
2.0719e-06
-9.80491e-06
-1.30079e-05
1.21958e-05
2.22952e-05
2.8218e-05
3.18208e-05
3.42671e-05
3.61861e-05
3.78909e-05
3.9488e-05
4.09609e-05
4.22323e-05
4.32037e-05
4.37748e-05
4.38456e-05
4.32976e-05
4.19469e-05
3.94349e-05
3.51386e-05
2.78128e-05
1.55079e-05
)
;

boundaryField
{
    movingWall
    {
        type            calculated;
        value           uniform 0;
    }
    fixedWalls
    {
        type            calculated;
        value           uniform 0;
    }
    frontAndBack
    {
        type            empty;
        value           nonuniform 0();
    }
}


// ************************************************************************* //
