/*--------------------------------*- C++ -*----------------------------------*\
| =========                 |                                                 |
| \\      /  F ield         | OpenFOAM: The Open Source CFD Toolbox           |
|  \\    /   O peration     | Version:  2.1.x                                 |
|   \\  /    A nd           | Web:      www.OpenFOAM.org                      |
|    \\/     M anipulation  |                                                 |
\*---------------------------------------------------------------------------*/
FoamFile
{
    version     2.0;
    format      ascii;
    class       volVectorField;
    location    "0.3";
    object      U;
}
// * * * * * * * * * * * * * * * * * * * * * * * * * * * * * * * * * * * * * //

dimensions      [0 1 -1 0 0 0 0];

internalField   nonuniform List<vector> 
400
(
(1.83397 1.83418 0)
(8.92987 1.77788 0)
(5.00204 0.905466 0)
(1.57775 0.480093 0)
(0.673851 0.245622 0)
(0.366372 0.0969448 0)
(0.156155 0.0209144 0)
(0.0432594 -0.0110684 0)
(-0.00845405 -0.0227274 0)
(-0.0334904 -0.0266235 0)
(-0.0456687 -0.0280993 0)
(-0.0497941 -0.0289888 0)
(-0.0478839 -0.0298761 0)
(-0.0409594 -0.0308746 0)
(-0.0297853 -0.0318759 0)
(-0.0153669 -0.0326247 0)
(0.000726367 -0.0326902 0)
(0.0158735 -0.0312644 0)
(0.0240706 -0.0265258 0)
(0.0126699 -0.0141878 0)
(1.77466 8.94225 0)
(6.46568 6.48242 0)
(5.14814 3.56223 0)
(3.01197 1.98849 0)
(1.93767 1.10315 0)
(1.28546 0.55581 0)
(0.784045 0.249912 0)
(0.449585 0.0937859 0)
(0.244109 0.0151195 0)
(0.116257 -0.0265961 0)
(0.0367713 -0.0510415 0)
(-0.00975713 -0.0672958 0)
(-0.0325686 -0.0794787 0)
(-0.0375927 -0.089227 0)
(-0.029244 -0.096788 0)
(-0.0117489 -0.101495 0)
(0.0100084 -0.101875 0)
(0.0297476 -0.0953355 0)
(0.0375088 -0.07709 0)
(0.0183982 -0.0378221 0)
(0.900248 5.03378 0)
(3.5457 5.19976 0)
(3.70519 3.75828 0)
(3.10487 2.71109 0)
(2.51629 1.86693 0)
(1.91897 1.1785 0)
(1.35916 0.694781 0)
(0.9194 0.386533 0)
(0.602552 0.194958 0)
(0.379685 0.0741891 0)
(0.226284 -0.00498178 0)
(0.124726 -0.0600202 0)
(0.0620821 -0.10062 0)
(0.0288325 -0.131484 0)
(0.0174238 -0.154103 0)
(0.0209266 -0.167765 0)
(0.0321434 -0.170042 0)
(0.0430396 -0.156817 0)
(0.0432046 -0.121783 0)
(0.0195379 -0.0552481 0)
(0.476193 1.61659 0)
(1.97637 3.09426 0)
(2.66644 3.20093 0)
(2.77537 2.86641 0)
(2.57225 2.29265 0)
(2.17592 1.67014 0)
(1.71443 1.14143 0)
(1.28864 0.741762 0)
(0.936451 0.453758 0)
(0.660753 0.249522 0)
(0.453503 0.103686 0)
(0.303637 -0.00305729 0)
(0.200094 -0.0833999 0)
(0.133065 -0.144404 0)
(0.0938799 -0.188831 0)
(0.0743716 -0.216253 0)
(0.0663599 -0.223824 0)
(0.061386 -0.206739 0)
(0.0497578 -0.158371 0)
(0.0204709 -0.0697807 0)
(0.243773 0.71385 0)
(1.09636 2.03819 0)
(1.8354 2.64922 0)
(2.21833 2.71212 0)
(2.28496 2.41202 0)
(2.11943 1.95103 0)
(1.82445 1.47813 0)
(1.48951 1.06237 0)
(1.16932 0.723258 0)
(0.890157 0.457401 0)
(0.661171 0.252149 0)
(0.481874 0.0934455 0)
(0.347092 -0.0300033 0)
(0.249876 -0.125341 0)
(0.182732 -0.195649 0)
(0.137944 -0.2406 0)
(0.10763 -0.25722 0)
(0.0838465 -0.240608 0)
(0.0581732 -0.184449 0)
(0.021878 -0.0806918 0)
(0.0964034 0.408139 0)
(0.552569 1.39964 0)
(1.15845 2.08314 0)
(1.61508 2.36228 0)
(1.84649 2.30217 0)
(1.86918 2.03124 0)
(1.73948 1.66947 0)
(1.52353 1.29593 0)
(1.27544 0.95291 0)
(1.03133 0.657562 0)
(0.811675 0.411951 0)
(0.625584 0.211144 0)
(0.474844 0.0487828 0)
(0.357057 -0.0798876 0)
(0.267567 -0.176836 0)
(0.200484 -0.24117 0)
(0.149263 -0.269649 0)
(0.107148 -0.257441 0)
(0.0673376 -0.198824 0)
(0.0235775 -0.0869273 0)
(0.0208478 0.198456 0)
(0.247983 0.907113 0)
(0.681731 1.54676 0)
(1.10206 1.94 0)
(1.397 2.05898 0)
(1.53524 1.95977 0)
(1.5327 1.72493 0)
(1.42853 1.42667 0)
(1.26494 1.11548 0)
(1.07679 0.821176 0)
(0.888645 0.557962 0)
(0.715435 0.330423 0)
(0.564572 0.138699 0)
(0.438237 -0.0179198 0)
(0.335232 -0.139012 0)
(0.252255 -0.222314 0)
(0.184746 -0.263895 0)
(0.127559 -0.258851 0)
(0.0756545 -0.202104 0)
(0.0252121 -0.0883792 0)
(-0.0111579 0.0855546 0)
(0.0916781 0.577953 0)
(0.376294 1.12305 0)
(0.712366 1.54429 0)
(1.00024 1.76762 0)
(1.18896 1.79677 0)
(1.26731 1.67721 0)
(1.25046 1.46398 0)
(1.16489 1.2047 0)
(1.03799 0.933898 0)
(0.892707 0.673372 0)
(0.745733 0.435307 0)
(0.607686 0.226072 0)
(0.48422 0.0495067 0)
(0.377312 -0.0908675 0)
(0.286363 -0.190777 0)
(0.209029 -0.245116 0)
(0.141929 -0.248584 0)
(0.08168 -0.196622 0)
(0.0264442 -0.085881 0)
(-0.0230884 0.0345081 0)
(0.011841 0.377162 0)
(0.184165 0.8182 0)
(0.428376 1.21464 0)
(0.673288 1.48173 0)
(0.867821 1.59288 0)
(0.987123 1.56355 0)
(1.02915 1.429 0)
(1.0059 1.22785 0)
(0.935215 0.993315 0)
(0.835173 0.75021 0)
(0.7211 0.515456 0)
(0.604442 0.300225 0)
(0.492811 0.112438 0)
(0.390556 -0.0412235 0)
(0.299444 -0.15417 0)
(0.219243 -0.219725 0)
(0.148262 -0.231776 0)
(0.0844297 -0.185979 0)
(0.0270328 -0.0809644 0)
(-0.0275207 0.0112256 0)
(-0.0321032 0.255165 0)
(0.0598838 0.606003 0)
(0.222645 0.956259 0)
(0.412296 1.22826 0)
(0.586993 1.38279 0)
(0.718283 1.4156 0)
(0.794085 1.34489 0)
(0.81535 1.1984 0)
(0.790845 1.00449 0)
(0.732586 0.787417 0)
(0.652699 0.566002 0)
(0.561671 0.354332 0)
(0.467665 0.163343 0)
(0.376467 0.00241183 0)
(0.29167 -0.11961 0)
(0.214878 -0.194223 0)
(0.145901 -0.214047 0)
(0.0834713 -0.174407 0)
(0.0268526 -0.0755569 0)
(-0.0298507 0.00235427 0)
(-0.0600842 0.184002 0)
(-0.0257339 0.463912 0)
(0.0704295 0.763154 0)
(0.205385 1.01758 0)
(0.348771 1.18674 0)
(0.474229 1.25609 0)
(0.565197 1.23152 0)
(0.615289 1.13077 0)
(0.625897 0.975882 0)
(0.603134 0.788254 0)
(0.555196 0.586322 0)
(0.490532 0.385225 0)
(0.416813 0.197597 0)
(0.340437 0.0347012 0)
(0.266304 -0.0926959 0)
(0.197583 -0.174188 0)
(0.135423 -0.200613 0)
(0.0788655 -0.166122 0)
(0.0258716 -0.071688 0)
(-0.0320558 0.00391887 0)
(-0.0815443 0.149665 0)
(-0.0902672 0.375853 0)
(-0.0468863 0.625714 0)
(0.0400067 0.850198 0)
(0.150086 1.01386 0)
(0.261202 1.0988 0)
(0.355735 1.10337 0)
(0.423014 1.03733 0)
(0.459034 0.916417 0)
(0.46487 0.758008 0)
(0.444805 0.578563 0)
(0.404778 0.392702 0)
(0.351305 0.213424 0)
(0.290803 0.0528902 0)
(0.229086 -0.0768107 0)
(0.170772 -0.163448 0)
(0.118386 -0.19552 0)
(0.0710083 -0.164773 0)
(0.0240991 -0.0712702 0)
(-0.0349382 0.0150209 0)
(-0.101034 0.144386 0)
(-0.14343 0.329884 0)
(-0.140927 0.533353 0)
(-0.0927623 0.720988 0)
(-0.0120694 0.865514 0)
(0.0831079 0.950068 0)
(0.175709 0.969234 0)
(0.252885 0.927079 0)
(0.307007 0.833785 0)
(0.335209 0.702376 0)
(0.338298 0.546393 0)
(0.319624 0.378748 0)
(0.284199 0.211606 0)
(0.238062 0.0569414 0)
(0.187705 -0.0726438 0)
(0.139267 -0.163408 0)
(0.0970533 -0.20098 0)
(0.0604262 -0.173023 0)
(0.0215046 -0.0760095 0)
(-0.0389545 0.0361303 0)
(-0.120659 0.16354 0)
(-0.189452 0.316491 0)
(-0.21661 0.475288 0)
(-0.196158 0.62166 0)
(-0.137196 0.737917 0)
(-0.0548388 0.810615 0)
(0.0349017 0.833092 0)
(0.118324 0.805619 0)
(0.1856 0.733842 0)
(0.23102 0.626619 0)
(0.252522 0.494157 0)
(0.251022 0.34687 0)
(0.22985 0.195082 0)
(0.194358 0.0494765 0)
(0.15152 -0.0778933 0)
(0.109201 -0.172466 0)
(0.0743054 -0.216724 0)
(0.0476014 -0.192184 0)
(0.0179156 -0.0874715 0)
(-0.0445163 0.0684771 0)
(-0.141013 0.203354 0)
(-0.228079 0.326361 0)
(-0.272234 0.439805 0)
(-0.266552 0.541651 0)
(-0.2192 0.623961 0)
(-0.143732 0.67746 0)
(-0.0550344 0.69552 0)
(0.0332675 0.675947 0)
(0.11033 0.620837 0)
(0.168638 0.535377 0)
(0.20394 0.426445 0)
(0.214979 0.301556 0)
(0.203285 0.168451 0)
(0.173148 0.0354627 0)
(0.131645 -0.0872266 0)
(0.088414 -0.185529 0)
(0.0540187 -0.239238 0)
(0.0330199 -0.22173 0)
(0.0129416 -0.107269 0)
(-0.0519496 0.113751 0)
(-0.160885 0.258439 0)
(-0.25376 0.347586 0)
(-0.298354 0.412796 0)
(-0.292168 0.468354 0)
(-0.245044 0.514656 0)
(-0.169741 0.545836 0)
(-0.0796581 0.555515 0)
(0.0126141 0.539838 0)
(0.0963604 0.498261 0)
(0.163288 0.432995 0)
(0.207696 0.347956 0)
(0.226502 0.247767 0)
(0.219328 0.137216 0)
(0.18884 0.0214368 0)
(0.141373 -0.092734 0)
(0.0876627 -0.193761 0)
(0.0425303 -0.260748 0)
(0.0180016 -0.258353 0)
(0.00616695 -0.137402 0)
(-0.0604594 0.174432 0)
(-0.1746 0.318387 0)
(-0.251741 0.362021 0)
(-0.274476 0.376067 0)
(-0.251141 0.387457 0)
(-0.193965 0.400732 0)
(-0.11409 0.411268 0)
(-0.0222334 0.412493 0)
(0.0713346 0.399466 0)
(0.15725 0.369941 0)
(0.227517 0.324057 0)
(0.275821 0.263455 0)
(0.297749 0.19032 0)
(0.291014 0.10665 0)
(0.255976 0.0140778 0)
(0.196729 -0.0851083 0)
(0.122952 -0.18465 0)
(0.0521642 -0.267594 0)
(0.00757369 -0.293899 0)
(-0.00157598 -0.180962 0)
(-0.06307 0.251216 0)
(-0.16313 0.360367 0)
(-0.188325 0.341197 0)
(-0.16267 0.307442 0)
(-0.109118 0.28534 0)
(-0.0378033 0.275741 0)
(0.0451917 0.27253 0)
(0.133934 0.268764 0)
(0.221929 0.259295 0)
(0.302334 0.241337 0)
(0.368493 0.214048 0)
(0.414438 0.177743 0)
(0.435204 0.133014 0)
(0.42699 0.0799107 0)
(0.387464 0.0173018 0)
(0.316715 -0.0570375 0)
(0.219127 -0.144353 0)
(0.10827 -0.239005 0)
(0.0182639 -0.30958 0)
(-0.00284231 -0.238632 0)
(-0.0194309 0.306115 0)
(-0.0613465 0.331166 0)
(0.0110445 0.252419 0)
(0.100893 0.194236 0)
(0.180761 0.161672 0)
(0.255133 0.145961 0)
(0.328187 0.139216 0)
(0.400409 0.135441 0)
(0.469729 0.130767 0)
(0.532413 0.123157 0)
(0.583949 0.111842 0)
(0.619758 0.0967256 0)
(0.635542 0.0777902 0)
(0.627212 0.0544571 0)
(0.590615 0.024817 0)
(0.521346 -0.0153091 0)
(0.413779 -0.0732407 0)
(0.264179 -0.157905 0)
(0.104366 -0.264328 0)
(0.0420434 -0.273518 0)
(0.286516 0.15982 0)
(0.359359 0.146125 0)
(0.502122 0.0952274 0)
(0.603938 0.0640733 0)
(0.663863 0.048359 0)
(0.705779 0.0411251 0)
(0.74128 0.0381255 0)
(0.774211 0.0368113 0)
(0.805136 0.0357518 0)
(0.832954 0.034254 0)
(0.855805 0.0320608 0)
(0.871655 0.0291206 0)
(0.878515 0.0253892 0)
(0.87428 0.0206074 0)
(0.856136 0.0139703 0)
(0.819126 0.00349101 0)
(0.752231 -0.0153109 0)
(0.6313 -0.0502492 0)
(0.452575 -0.108415 0)
(0.324304 -0.137683 0)
)
;

boundaryField
{
    movingWall
    {
        type            fixedValue;
        value           uniform (1 0 0);
    }
    fixedWalls
    {
        type            fixedValue;
        value           uniform (0 0 0);
    }
    frontAndBack
    {
        type            empty;
    }
}


// ************************************************************************* //
