/*--------------------------------*- C++ -*----------------------------------*\
| =========                 |                                                 |
| \\      /  F ield         | OpenFOAM: The Open Source CFD Toolbox           |
|  \\    /   O peration     | Version:  2.1.x                                 |
|   \\  /    A nd           | Web:      www.OpenFOAM.org                      |
|    \\/     M anipulation  |                                                 |
\*---------------------------------------------------------------------------*/
FoamFile
{
    version     2.0;
    format      ascii;
    class       volScalarField;
    location    "0.2";
    object      p;
}
// * * * * * * * * * * * * * * * * * * * * * * * * * * * * * * * * * * * * * //

dimensions      [0 2 -2 0 0 0 0];

internalField   nonuniform List<scalar> 
3875
(
19.8675
19.7239
19.6509
19.5925
19.5253
19.451
19.3726
19.2978
19.2254
19.151
19.0778
19.0056
18.9309
18.8556
18.7819
18.7081
18.634
18.5627
18.4895
18.4157
18.3444
18.2708
18.1935
18.1212
18.0582
17.9896
17.9206
17.8559
17.7878
17.7143
17.6443
17.5791
17.5152
17.444
17.3659
17.294
17.2273
17.1509
17.0786
17.0124
16.952
16.9014
16.8674
16.8627
16.9094
17.0447
17.3054
17.7875
18.5192
19.5171
19.8694
19.7199
19.6426
19.5839
19.5221
19.45
19.3718
19.2938
19.2214
19.1501
19.0791
19.0073
18.9281
18.854
18.785
18.7069
18.6324
18.5643
18.4875
18.4146
18.3465
18.2722
18.1962
18.1239
18.0566
17.9907
17.9228
17.8587
17.7853
17.7111
17.6453
17.5788
17.5122
17.4452
17.3696
17.2975
17.223
17.1465
17.0745
17.0035
16.9404
16.8863
16.8375
16.8102
16.8057
16.8763
17.0261
17.3332
17.8114
18.453
19.8626
19.7153
19.6437
19.5846
19.5188
19.4526
19.3773
19.2989
19.2243
19.1482
19.0758
19.006
18.9302
18.8574
18.7869
18.7115
18.6317
18.5581
18.4886
18.4175
18.349
18.2787
18.1994
18.1244
18.057
17.9918
17.9244
17.8586
17.7841
17.712
17.6486
17.5776
17.509
17.442
17.37
17.2987
17.2229
17.1447
17.0671
16.992
16.9218
16.8486
16.7789
16.7053
16.6403
16.5669
16.5292
16.4682
16.5709
16.5765
19.8716
19.7205
19.6431
19.5828
19.5162
19.447
19.3728
19.3005
19.2239
19.1474
19.0772
19.005
18.9323
18.8539
18.7772
18.7054
18.6328
18.5598
18.4889
18.4211
18.3474
18.2753
18.2068
18.1337
18.058
17.9872
17.9213
17.8529
17.7838
17.716
17.6472
17.5774
17.5125
17.4444
17.3702
17.2915
17.2145
17.1359
17.0583
16.9873
16.9052
16.8203
16.7268
16.6153
16.4701
16.2709
15.9616
15.5216
14.8536
14.2435
19.8689
19.723
19.6482
19.5922
19.5239
19.4495
19.3742
19.2995
19.2264
19.153
19.0793
19.0053
18.9318
18.8549
18.7793
18.7064
18.6331
18.5611
18.4891
18.4181
18.3472
18.2765
18.2055
18.1343
18.0622
17.9907
17.9219
17.8536
17.7853
17.7173
17.6475
17.577
17.5077
17.4373
17.3644
17.2897
17.2139
17.1345
17.0565
16.9759
16.8931
16.7985
16.6921
16.5507
16.3635
16.0706
15.6193
14.8291
13.2558
10.5013
19.8638
19.7222
19.6496
19.5844
19.5183
19.4451
19.3667
19.2975
19.2282
19.149
19.0752
19.0052
18.933
18.8551
18.778
18.706
18.6336
18.5612
18.4887
18.4187
18.3489
18.2745
18.1957
18.1211
18.0556
17.9906
17.923
17.8551
17.7848
17.7144
17.645
17.5775
17.5112
17.4393
17.366
17.2969
17.2283
17.1521
17.0802
17.0166
16.9542
16.8997
16.8649
16.8593
16.9104
17.0409
17.2978
17.7621
18.4778
19.4911
19.8615
19.7187
19.6415
19.5807
19.5156
19.4441
19.368
19.2927
19.228
19.1514
19.0779
19.005
18.9301
18.859
18.7815
18.7018
18.6313
18.56
18.4864
18.4203
18.3446
18.2702
18.2015
18.1239
18.0542
17.9953
17.9243
17.8559
17.7851
17.7108
17.6452
17.5787
17.5128
17.4391
17.3656
17.3008
17.224
17.1487
17.0796
17.0062
16.9386
16.8812
16.8331
16.8059
16.8036
16.8744
17.0131
17.3126
17.7654
18.3905
19.8653
19.7124
19.6363
19.5823
19.5201
19.4441
19.3677
19.2952
19.2246
19.1524
19.0831
19.0055
18.9272
18.8608
18.7892
18.7053
18.6319
18.5625
18.4885
18.4148
18.3447
18.2765
18.2015
18.1247
18.0567
17.9943
17.9251
17.8573
17.7833
17.7131
17.6434
17.5761
17.5108
17.4399
17.37
17.2967
17.2195
17.1436
17.0692
16.9945
16.9235
16.8496
16.7793
16.7069
16.6394
16.5688
16.5201
16.4553
16.5349
16.5325
19.8698
19.7184
19.6389
19.5772
19.5145
19.4478
19.372
19.2945
19.2222
19.1524
19.0805
19.0051
18.9266
18.8531
18.7781
18.7018
18.6344
18.5601
18.4875
18.4165
18.3448
18.2797
18.2028
18.1286
18.0635
17.9942
17.9226
17.8517
17.7821
17.7188
17.6462
17.5731
17.5105
17.4379
17.3665
17.2924
17.2131
17.1394
17.0631
16.9918
16.9086
16.821
16.7269
16.6159
16.4712
16.2736
15.9641
15.5224
14.8414
14.2545
19.8728
19.7202
19.6405
19.5842
19.5181
19.4465
19.3706
19.2935
19.2251
19.1567
19.0789
19.0024
18.9336
18.855
18.7784
18.7046
18.6306
18.5629
18.4879
18.4141
18.3463
18.2769
18.2042
18.1351
18.0667
17.9906
17.921
17.8532
17.785
17.7208
17.6496
17.5741
17.5032
17.4337
17.3632
17.2911
17.2167
17.1357
17.0566
16.9845
16.9018
16.7998
16.6936
16.5537
16.3671
16.079
15.6278
14.8442
13.2785
10.5614
19.8695
19.718
19.6401
19.5821
19.5222
19.4524
19.3688
19.2939
19.2274
19.1543
19.0816
19.0055
18.9288
18.8556
18.7838
18.7078
18.6354
18.5617
18.4882
18.4209
18.3479
18.2693
18.1936
18.1242
18.0576
17.9922
17.9282
17.8556
17.7827
17.7188
17.6474
17.5765
17.5101
17.4349
17.3634
17.2972
17.2249
17.1523
17.0812
17.0106
16.9524
16.9071
16.8719
16.8626
16.9094
17.0357
17.2923
17.7528
18.4707
19.4866
19.8676
19.7155
19.6383
19.5766
19.5144
19.4482
19.3745
19.298
19.2264
19.1563
19.0778
19.0045
18.9317
18.8551
18.7776
18.7025
18.6337
18.5619
18.4936
18.4184
18.3409
18.2742
18.1986
18.1226
18.0569
17.992
17.9251
17.856
17.7889
17.7152
17.6433
17.5801
17.5087
17.4363
17.3689
17.2953
17.219
17.1482
17.0809
17.0051
16.9411
16.8891
16.8362
16.8081
16.8043
16.8724
17.0084
17.307
17.7538
18.3843
19.8691
19.7143
19.6378
19.5772
19.5144
19.4454
19.3712
19.3013
19.2243
19.152
19.0869
19.0116
18.9285
18.8534
18.785
18.7109
18.6318
18.5612
18.4937
18.4173
18.3427
18.2738
18.2036
18.1247
18.0552
17.9949
17.9237
17.853
17.7879
17.7142
17.6421
17.5764
17.5109
17.4377
17.366
17.2997
17.22
17.1436
17.0683
16.9919
16.9249
16.8526
16.7829
16.7095
16.6414
16.5712
16.5173
16.4537
16.5235
16.5252
19.8676
19.7131
19.6392
19.5798
19.5168
19.4472
19.3727
19.2969
19.2201
19.1525
19.0875
19.0102
18.9299
18.8517
18.7787
18.707
18.6292
18.5596
18.4883
18.4154
18.35
18.2748
18.1993
18.1321
18.0592
17.99
17.9264
17.8564
17.7817
17.7141
17.6511
17.575
17.5036
17.4393
17.3696
17.2954
17.2171
17.1391
17.0625
16.9862
16.9059
16.8243
16.7271
16.617
16.472
16.2756
15.9638
15.5244
14.8419
14.2505
19.8715
19.718
19.6421
19.5838
19.517
19.4472
19.3723
19.296
19.2236
19.1582
19.0827
19.0049
18.9364
18.8592
18.7796
18.7023
18.6276
18.5601
18.4891
18.417
18.3484
18.2792
18.203
18.1303
18.0624
17.9912
17.9213
17.8524
17.7838
17.7183
17.6528
17.5798
17.5054
17.4322
17.3616
17.2943
17.2143
17.1338
17.0584
16.9817
16.9028
16.8021
16.6942
16.5556
16.3696
16.0831
15.6329
14.8576
13.2918
10.5789
19.8672
19.7168
19.6393
19.5835
19.5222
19.4509
19.3688
19.2938
19.226
19.1541
19.0791
19.0068
18.93
18.8514
18.7808
18.7117
18.641
18.5631
18.4901
18.417
18.3399
18.2697
18.1995
18.1281
18.0578
17.9893
17.9236
17.8547
17.7847
17.7205
17.647
17.572
17.5054
17.4351
17.3645
17.2954
17.2227
17.1514
17.0802
17.0112
16.9528
16.9045
16.8707
16.8677
16.9148
17.0445
17.3017
17.7668
18.4848
19.4974
19.8583
19.7114
19.6369
19.5812
19.5218
19.4442
19.366
19.2974
19.2264
19.1563
19.0772
19.0014
18.9331
18.8528
18.7763
18.7103
18.6406
18.5607
18.491
18.422
18.3404
18.2673
18.1991
18.1305
18.0577
17.9874
17.9263
17.8551
17.7828
17.7205
17.6521
17.5736
17.5044
17.4346
17.3632
17.2979
17.2202
17.1482
17.0776
17.0036
16.9426
16.8845
16.8354
16.8134
16.8072
16.8762
17.0167
17.3144
17.7729
18.4018
19.8682
19.7114
19.6351
19.5836
19.5226
19.4414
19.366
19.299
19.2254
19.1566
19.0856
19.0065
18.9287
18.8544
18.7791
18.7059
18.6321
18.559
18.495
18.4193
18.3426
18.2727
18.2026
18.1274
18.0566
17.9899
17.9218
17.8571
17.7841
17.7169
17.647
17.5721
17.5059
17.4372
17.3703
17.3003
17.2189
17.1422
17.0698
16.9987
16.9249
16.849
16.7822
16.7093
16.6427
16.5698
16.5268
16.4557
16.544
16.5379
19.8684
19.7138
19.6381
19.5853
19.5212
19.4418
19.3682
19.2975
19.2185
19.1483
19.0859
19.0109
18.9316
18.8545
18.7776
18.7005
18.6293
18.5591
18.4884
18.4222
18.3502
18.2729
18.2008
18.1273
18.0556
17.9938
17.9273
17.8506
17.7795
17.7197
17.6543
17.5746
17.5018
17.4346
17.3688
17.2974
17.2191
17.1386
17.0601
16.9897
16.9071
16.8225
16.7281
16.6176
16.4753
16.2783
15.9706
15.5289
14.8528
14.2566
19.8719
19.7207
19.6437
19.5845
19.5193
19.4481
19.3704
19.2921
19.2174
19.151
19.0815
19.0072
18.9353
18.8552
18.7751
18.7024
18.6304
18.5602
18.4895
18.4191
18.3493
18.2759
18.204
18.1342
18.058
17.9877
17.9211
17.8511
17.783
17.7206
17.6506
17.5773
17.5052
17.4319
17.3632
17.2919
17.2179
17.1416
17.058
16.9778
16.9024
16.8036
16.6957
16.5574
16.3721
16.0863
15.6382
14.8602
13.302
10.6135
19.8657
19.7202
19.6478
19.5936
19.5279
19.4522
19.3744
19.3003
19.2285
19.1539
19.0785
19.0049
18.9297
18.8538
18.7812
18.7052
18.6331
18.5655
18.4921
18.4171
18.3433
18.2725
18.2018
18.1299
18.0584
17.99
17.9237
17.8548
17.7808
17.7131
17.6443
17.5721
17.5063
17.4369
17.3653
17.2938
17.2227
17.1555
17.0803
17.0092
16.9526
16.9058
16.8706
16.8644
16.9116
17.0442
17.3078
17.7933
18.5248
19.5263
19.8606
19.7144
19.6426
19.587
19.5222
19.4468
19.3714
19.3037
19.2312
19.1507
19.0737
19.0026
18.9292
18.8528
18.7787
18.7066
18.6352
18.5634
18.4927
18.4195
18.3426
18.2712
18.2041
18.1302
18.0571
17.9896
17.9244
17.8579
17.7846
17.717
17.6507
17.5735
17.5028
17.4386
17.3649
17.2907
17.2215
17.1527
17.0802
17.0083
16.9434
16.8846
16.8348
16.8085
16.8054
16.8775
17.0237
17.3352
17.8134
18.4579
19.8686
19.7166
19.6384
19.5844
19.5242
19.4468
19.3706
19.304
19.2267
19.1524
19.0802
19.0025
18.9295
18.8549
18.7791
18.7052
18.6335
18.5636
18.4976
18.4239
18.342
18.2698
18.2008
18.1273
18.0573
17.991
17.924
17.8544
17.784
17.7173
17.65
17.5803
17.5079
17.4366
17.3677
17.2907
17.2186
17.1492
17.0689
16.9924
16.9228
16.8504
16.7839
16.7109
16.6447
16.5745
16.5326
16.4691
16.5736
16.5751
19.8642
19.721
19.6484
19.5901
19.5199
19.445
19.3721
19.2977
19.2194
19.1476
19.0831
19.0052
18.9277
18.8574
18.7786
18.7007
18.6309
18.5634
18.4961
18.4198
18.342
18.2703
18.1992
18.129
18.0603
17.9956
17.9269
17.8503
17.7797
17.717
17.6505
17.5808
17.5091
17.4332
17.3613
17.2915
17.2212
17.1471
17.0635
16.9869
16.9055
16.8221
16.7283
16.618
16.4768
16.2801
15.9761
15.5365
14.8795
14.2554
19.8683
19.7245
19.6519
19.5953
19.5249
19.4494
19.3729
19.2965
19.2221
19.1517
19.0819
19.0073
18.9318
18.856
18.7783
18.7036
18.6324
18.5621
18.4917
18.4195
18.3449
18.2698
18.1982
18.1295
18.0598
17.9923
17.9206
17.8497
17.7825
17.7176
17.6499
17.5786
17.5108
17.4368
17.363
17.2868
17.2142
17.1396
17.0598
16.9794
16.8971
16.8031
16.6958
16.5563
16.3721
16.0855
15.641
14.8644
13.2917
10.5504
20.4861
20.6323
20.6767
20.8281
21.2297
19.2389
19.8681
20.4664
20.9787
21.5535
17.0692
18.0237
19.4152
20.5837
21.6445
13.818
15.1228
17.4387
18.9873
20.3788
4.72246
9.0736
13.9099
15.9943
17.5084
20.503
20.6464
20.6682
20.8449
21.2417
19.1086
19.7219
20.377
21.1235
21.8434
16.9488
17.8423
19.3101
20.9095
22.286
13.7871
14.9118
17.3002
19.3741
21.0854
5.17582
8.51714
13.6155
16.4
18.1412
20.5092
20.6539
20.6756
20.849
21.2412
19.0869
19.7209
20.4058
21.2069
21.9124
16.9222
17.8309
19.3781
21.0788
22.454
13.7764
14.884
17.3634
19.5734
21.2974
5.11857
8.38463
13.6553
16.6073
18.2628
20.505
20.6566
20.6753
20.836
21.2045
19.1325
19.7437
20.3925
21.0829
21.7401
16.9734
17.8495
19.315
20.8546
22.1766
13.8143
14.9207
17.3035
19.3363
20.9998
5.27415
8.52832
13.6094
16.3594
18.0719
20.5042
20.6471
20.6808
20.8252
21.1935
19.2571
19.8846
20.4766
20.9723
21.4949
17.0796
18.0296
19.416
20.5613
21.5678
13.8378
15.1396
17.4421
18.9627
20.3061
4.7917
9.11778
13.9351
15.9799
17.458
20.954
20.954
20.954
20.954
20.954
20.954
20.954
20.954
20.954
20.954
20.954
20.954
20.954
20.954
20.954
20.954
20.954
20.954
20.954
20.954
20.954
20.954
20.954
20.954
20.954
20.954
20.954
20.954
20.954
20.954
20.954
20.954
20.954
20.954
20.954
20.954
20.954
20.954
20.954
20.954
20.954
20.954
20.954
20.954
20.954
20.954
20.954
20.954
20.954
20.954
20.954
20.954
20.954
20.954
20.954
20.954
20.954
20.954
20.954
20.954
20.954
20.954
20.954
20.954
20.954
20.954
20.954
20.954
20.954
20.954
20.954
20.954
20.954
20.954
20.954
20.954
20.954
20.954
20.954
20.954
20.954
20.954
20.954
20.954
20.954
20.954
20.954
20.954
20.954
20.954
20.954
20.954
20.954
20.954
20.954
20.954
20.954
20.954
20.954
20.954
20.954
20.954
20.954
20.954
20.954
20.954
20.954
20.954
20.954
20.954
20.954
20.954
20.954
20.954
20.954
20.954
20.954
20.954
20.954
20.954
20.954
20.954
20.954
20.954
20.954
20.954
20.954
20.954
20.954
20.9541
20.954
20.954
20.9541
20.9541
20.9541
20.954
20.9541
20.9541
20.9541
20.9541
20.954
20.9541
20.9541
20.9541
20.9541
20.954
20.9541
20.9541
20.9541
20.9541
20.954
20.954
20.9541
20.9541
20.9541
20.954
20.954
20.9541
20.9541
20.9541
20.954
20.954
20.9541
20.9542
20.9542
20.9539
20.954
20.9541
20.9542
20.9543
20.9537
20.9539
20.9541
20.9544
20.9545
20.9534
20.9537
20.9541
20.9546
20.9548
20.9529
20.9534
20.9542
20.955
20.9554
20.9519
20.9527
20.9541
20.9557
20.9564
20.9499
20.9515
20.954
20.9568
20.9581
20.9462
20.9488
20.9535
20.9585
20.9607
20.9384
20.9429
20.9512
20.9606
20.9643
20.9227
20.9282
20.942
20.96
20.965
20.891
20.8918
20.9042
20.9315
20.9467
20.8348
20.8145
20.8062
20.8367
20.8875
20.76
20.7141
20.6818
20.7044
20.7898
20.6836
20.6257
20.58
20.5825
20.6886
20.6294
20.5767
20.539
20.5055
20.6275
20.6028
20.5687
20.5532
20.5093
20.6168
20.6044
20.5907
20.5888
20.5624
20.6749
20.6253
20.6302
20.632
20.633
20.8649
20.954
20.954
20.954
20.954
20.954
20.954
20.954
20.954
20.954
20.954
20.954
20.954
20.954
20.954
20.954
20.954
20.954
20.954
20.954
20.954
20.954
20.954
20.954
20.954
20.954
20.954
20.954
20.954
20.954
20.954
20.954
20.954
20.954
20.954
20.954
20.954
20.954
20.954
20.954
20.954
20.954
20.954
20.954
20.954
20.954
20.954
20.954
20.954
20.954
20.954
20.954
20.954
20.954
20.954
20.954
20.954
20.954
20.954
20.954
20.954
20.954
20.954
20.954
20.954
20.954
20.954
20.954
20.954
20.954
20.954
20.954
20.954
20.954
20.954
20.954
20.954
20.954
20.954
20.954
20.954
20.954
20.954
20.954
20.954
20.954
20.954
20.954
20.954
20.954
20.954
20.954
20.954
20.954
20.954
20.954
20.954
20.954
20.954
20.954
20.954
20.954
20.954
20.954
20.954
20.954
20.954
20.954
20.954
20.954
20.954
20.954
20.954
20.954
20.954
20.954
20.954
20.954
20.954
20.954
20.954
20.954
20.954
20.954
20.954
20.954
20.954
20.954
20.954
20.954
20.9541
20.954
20.954
20.9541
20.9541
20.9541
20.954
20.9541
20.9541
20.9541
20.9541
20.954
20.9541
20.9541
20.9541
20.9541
20.954
20.954
20.9541
20.9541
20.9541
20.954
20.954
20.9541
20.9541
20.9541
20.954
20.954
20.9541
20.9541
20.9541
20.954
20.954
20.9541
20.9542
20.9542
20.9539
20.954
20.9541
20.9542
20.9543
20.9537
20.9539
20.9541
20.9544
20.9545
20.9534
20.9537
20.9541
20.9546
20.9548
20.9528
20.9533
20.9541
20.9549
20.9554
20.9518
20.9526
20.954
20.9555
20.9562
20.9497
20.9512
20.9536
20.9563
20.9573
20.9457
20.948
20.9521
20.9568
20.9585
20.9371
20.9407
20.9473
20.9561
20.959
20.92
20.9232
20.932
20.9477
20.9543
20.8868
20.8848
20.8858
20.9013
20.929
20.8325
20.8164
20.7959
20.8021
20.8696
20.762
20.7304
20.6922
20.6774
20.78
20.69
20.6519
20.6042
20.5627
20.681
20.6368
20.5965
20.5556
20.4869
20.6045
20.6083
20.5776
20.5495
20.4755
20.5819
20.6074
20.5925
20.5754
20.5274
20.63
20.634
20.6291
20.6201
20.6116
20.8124
20.954
20.954
20.954
20.954
20.954
20.954
20.954
20.954
20.954
20.954
20.954
20.954
20.954
20.954
20.954
20.954
20.954
20.954
20.954
20.954
20.954
20.954
20.954
20.954
20.954
20.954
20.954
20.954
20.954
20.954
20.954
20.954
20.954
20.954
20.954
20.954
20.954
20.954
20.954
20.954
20.954
20.954
20.954
20.954
20.954
20.954
20.954
20.954
20.954
20.954
20.954
20.954
20.954
20.954
20.954
20.954
20.954
20.954
20.954
20.954
20.954
20.954
20.954
20.954
20.954
20.954
20.954
20.954
20.954
20.954
20.954
20.954
20.954
20.954
20.954
20.954
20.954
20.954
20.954
20.954
20.954
20.954
20.954
20.954
20.954
20.954
20.954
20.954
20.954
20.954
20.954
20.954
20.954
20.954
20.954
20.954
20.954
20.954
20.954
20.954
20.954
20.954
20.954
20.954
20.954
20.954
20.954
20.954
20.954
20.954
20.954
20.954
20.954
20.954
20.954
20.954
20.954
20.954
20.954
20.954
20.954
20.954
20.954
20.954
20.954
20.954
20.954
20.954
20.954
20.9541
20.954
20.954
20.9541
20.9541
20.9541
20.954
20.9541
20.9541
20.9541
20.9541
20.954
20.9541
20.9541
20.9541
20.9541
20.954
20.954
20.9541
20.9541
20.9541
20.954
20.954
20.9541
20.9541
20.9541
20.954
20.954
20.9541
20.9541
20.9541
20.954
20.954
20.9541
20.9542
20.9542
20.9539
20.9539
20.9541
20.9542
20.9543
20.9537
20.9538
20.9541
20.9543
20.9545
20.9534
20.9536
20.9541
20.9545
20.9548
20.9528
20.9533
20.9541
20.9549
20.9554
20.9517
20.9525
20.954
20.9557
20.9565
20.9496
20.951
20.9537
20.957
20.9586
20.9454
20.9478
20.9525
20.959
20.9622
20.9366
20.9405
20.9481
20.9602
20.966
20.9192
20.9222
20.9312
20.9489
20.9631
20.886
20.8841
20.8839
20.8982
20.9387
20.8335
20.8223
20.8027
20.8055
20.8806
20.7667
20.7455
20.715
20.6901
20.7959
20.6979
20.671
20.6316
20.5767
20.7023
20.6441
20.6102
20.5763
20.4967
20.6215
20.6144
20.5841
20.558
20.4731
20.5877
20.6103
20.5942
20.573
20.5207
20.6268
20.6358
20.6302
20.6174
20.607
20.8012
20.954
20.954
20.954
20.954
20.954
20.954
20.954
20.954
20.954
20.954
20.954
20.954
20.954
20.954
20.954
20.954
20.954
20.954
20.954
20.954
20.954
20.954
20.954
20.954
20.954
20.954
20.954
20.954
20.954
20.954
20.954
20.954
20.954
20.954
20.954
20.954
20.954
20.954
20.954
20.954
20.954
20.954
20.954
20.954
20.954
20.954
20.954
20.954
20.954
20.954
20.954
20.954
20.954
20.954
20.954
20.954
20.954
20.954
20.954
20.954
20.954
20.954
20.954
20.954
20.954
20.954
20.954
20.954
20.954
20.954
20.954
20.954
20.954
20.954
20.954
20.954
20.954
20.954
20.954
20.954
20.954
20.954
20.954
20.954
20.954
20.954
20.954
20.954
20.954
20.954
20.954
20.954
20.954
20.954
20.954
20.954
20.954
20.954
20.954
20.954
20.954
20.954
20.954
20.954
20.954
20.954
20.954
20.954
20.954
20.954
20.954
20.954
20.954
20.954
20.954
20.954
20.954
20.954
20.954
20.954
20.954
20.954
20.954
20.954
20.954
20.954
20.954
20.954
20.954
20.9541
20.954
20.954
20.9541
20.9541
20.9541
20.954
20.954
20.9541
20.9541
20.9541
20.954
20.954
20.9541
20.9541
20.9541
20.954
20.954
20.9541
20.9541
20.9541
20.954
20.954
20.9541
20.9541
20.9541
20.954
20.954
20.9541
20.9541
20.9541
20.9539
20.954
20.9541
20.9541
20.9542
20.9539
20.9539
20.9541
20.9542
20.9543
20.9537
20.9538
20.9541
20.9543
20.9544
20.9533
20.9536
20.954
20.9545
20.9547
20.9527
20.9532
20.954
20.9548
20.9552
20.9516
20.9524
20.9537
20.9553
20.956
20.9494
20.9508
20.9531
20.9558
20.957
20.9451
20.9473
20.9513
20.956
20.9581
20.9362
20.9397
20.9462
20.9546
20.9581
20.9189
20.922
20.9308
20.9463
20.9538
20.8863
20.8857
20.8898
20.9079
20.9348
20.8344
20.8226
20.8054
20.8157
20.8813
20.7663
20.7404
20.7023
20.6917
20.7942
20.6943
20.6621
20.6094
20.5652
20.6947
20.6394
20.6029
20.5544
20.4738
20.6152
20.6102
20.5796
20.5447
20.459
20.5876
20.6076
20.5921
20.5711
20.5168
20.6332
20.6337
20.6299
20.618
20.6101
20.8096
20.954
20.954
20.954
20.954
20.954
20.954
20.954
20.954
20.954
20.954
20.954
20.954
20.954
20.954
20.954
20.954
20.954
20.954
20.954
20.954
20.954
20.954
20.954
20.954
20.954
20.954
20.954
20.954
20.954
20.954
20.954
20.954
20.954
20.954
20.954
20.954
20.954
20.954
20.954
20.954
20.954
20.954
20.954
20.954
20.954
20.954
20.954
20.954
20.954
20.954
20.954
20.954
20.954
20.954
20.954
20.954
20.954
20.954
20.954
20.954
20.954
20.954
20.954
20.954
20.954
20.954
20.954
20.954
20.954
20.954
20.954
20.954
20.954
20.954
20.954
20.954
20.954
20.954
20.954
20.954
20.954
20.954
20.954
20.954
20.954
20.954
20.954
20.954
20.954
20.954
20.954
20.954
20.954
20.954
20.954
20.954
20.954
20.954
20.954
20.954
20.954
20.954
20.954
20.954
20.954
20.954
20.954
20.954
20.954
20.954
20.954
20.954
20.954
20.954
20.954
20.954
20.954
20.954
20.954
20.954
20.954
20.954
20.954
20.954
20.954
20.954
20.954
20.954
20.954
20.9541
20.954
20.954
20.9541
20.9541
20.9541
20.954
20.954
20.9541
20.9541
20.9541
20.954
20.954
20.9541
20.9541
20.9541
20.954
20.954
20.9541
20.9541
20.9541
20.954
20.954
20.9541
20.9541
20.9541
20.954
20.954
20.9541
20.9541
20.9541
20.9539
20.954
20.9541
20.9541
20.9542
20.9538
20.9539
20.9541
20.9542
20.9543
20.9537
20.9538
20.954
20.9543
20.9544
20.9533
20.9536
20.954
20.9545
20.9547
20.9527
20.9532
20.9539
20.9548
20.9552
20.9516
20.9524
20.9538
20.9553
20.956
20.9495
20.951
20.9534
20.9561
20.9573
20.9455
20.948
20.9525
20.9573
20.9594
20.9374
20.9417
20.9497
20.9587
20.9623
20.9214
20.9269
20.9403
20.9581
20.9632
20.8906
20.8932
20.9079
20.9363
20.948
20.8383
20.8247
20.8235
20.8541
20.8949
20.7676
20.7326
20.699
20.7243
20.8049
20.6913
20.6466
20.5897
20.5947
20.7048
20.6343
20.5889
20.5364
20.5044
20.6316
20.6055
20.5721
20.5389
20.494
20.6116
20.6049
20.5909
20.5764
20.5461
20.6709
20.6269
20.6313
20.6283
20.6341
20.8554
-9.81685
0.635224
7.29456
10.853
13.0484
-8.22899
-5.33084
0.671147
4.89541
7.62933
-8.11443
-7.1874
-3.41343
0.296493
2.57024
-8.18399
-7.37517
-5.36007
-2.69215
-1.06476
-7.99142
-7.39674
-6.41864
-4.52228
-3.41889
-7.62432
-7.35777
-7.11046
-5.72732
-5.02304
-7.34935
-7.26123
-7.26638
-6.52496
-6.13883
-7.49847
-7.47867
-7.36905
-7.14556
-6.94113
-8.09523
-8.31004
-8.15747
-7.91567
-7.65263
-8.9491
-9.53922
-9.28365
-8.58064
-8.15339
-9.8147
-10.8731
-10.1456
-8.94749
-8.32161
-10.1744
-11.2648
-9.99519
-8.75466
-8.04704
-9.42034
-10.1455
-8.72962
-7.88134
-7.28036
-7.75764
-7.9645
-6.95233
-6.60413
-6.15992
-5.6778
-5.73013
-5.21353
-5.19481
-4.8758
-3.67303
-3.73088
-3.65339
-3.82538
-3.62147
-2.03192
-2.13042
-2.35551
-2.62351
-2.51437
-0.858156
-1.00489
-1.36313
-1.64884
-1.60134
-0.0937108
-0.263081
-0.639343
-0.896353
-0.883097
0.385312
0.219174
-0.116824
-0.335429
-0.333314
0.684365
0.532439
0.254691
0.0828384
0.0797957
0.874697
0.74197
0.524561
0.384424
0.388289
0.999895
0.884359
0.720224
0.602125
0.614137
1.08517
0.984526
0.86249
0.760999
0.779089
1.14508
1.05586
0.964192
0.877705
0.899636
1.18339
1.10353
1.03516
0.95998
0.984768
1.20224
1.13154
1.08107
1.01632
1.04237
1.20688
1.14418
1.10668
1.05052
1.07701
1.20206
1.14605
1.11799
1.06879
1.09434
1.18906
1.1384
1.11584
1.07252
1.09693
1.16817
1.12223
1.10337
1.06572
1.08814
1.13713
1.09126
1.08083
1.04847
1.06873
1.09908
1.05889
1.05296
1.02313
1.04208
1.0626
1.03017
1.01748
0.991133
1.00737
1.01795
0.989392
0.976417
0.954751
0.967588
0.964617
0.937981
0.928703
0.909246
0.920016
0.908492
0.884861
0.874733
0.859454
0.868647
0.851224
0.832039
0.823384
0.805477
0.80967
0.791684
0.773553
0.764089
0.74717
0.75072
0.729245
0.711883
0.70106
0.687789
0.692747
0.663166
0.646309
0.639538
0.62861
0.63247
0.59587
0.579638
0.575783
0.568181
0.574515
0.528166
0.513317
0.509663
0.502984
0.508432
0.459623
0.446752
0.44021
0.43254
0.43262
0.389679
0.377938
0.373325
0.362903
0.362984
0.319596
0.308138
0.302382
0.291754
0.290622
0.248624
0.237257
0.229072
0.222543
0.219503
0.175798
0.163665
0.156545
0.153312
0.153723
0.107993
0.098353
0.0949273
0.0916741
0.0926043
0.0449236
0.0381975
0.035827
0.0314267
0.0273502
-9.12851
-1.39502
6.48589
11.1413
13.7
-8.26422
-6.84149
-0.0809562
5.08955
8.10681
-8.47691
-7.3243
-3.588
0.41318
2.95949
-8.38289
-7.40332
-5.45767
-2.65186
-0.743799
-8.01498
-7.40432
-6.57338
-4.55746
-3.20734
-7.56283
-7.36504
-7.22424
-5.76742
-4.92634
-7.33467
-7.34878
-7.47936
-6.55187
-6.12756
-7.49629
-7.60791
-7.75232
-7.19296
-6.99352
-8.02031
-8.36507
-8.36581
-7.9032
-7.73978
-8.85593
-9.50651
-9.19207
-8.54012
-8.27265
-9.70655
-10.6699
-9.82077
-8.89478
-8.50435
-10.0622
-10.9729
-9.67697
-8.72365
-8.21234
-9.28732
-9.84839
-8.60073
-7.93217
-7.41777
-7.71655
-7.84523
-6.94117
-6.70576
-6.30661
-5.69438
-5.69549
-5.22208
-5.30994
-5.0241
-3.70832
-3.73635
-3.64638
-3.94593
-3.76092
-2.08493
-2.16732
-2.33802
-2.7442
-2.63929
-0.91731
-1.05023
-1.33869
-1.76603
-1.70948
-0.148362
-0.303313
-0.610692
-1.00917
-0.974316
0.334181
0.178722
-0.0935312
-0.439249
-0.410579
0.641031
0.495325
0.27399
-0.0156052
0.0153358
0.837359
0.705731
0.53635
0.300049
0.329533
0.964512
0.847824
0.724581
0.533042
0.561066
1.05094
0.947528
0.859327
0.704495
0.731324
1.11378
1.01961
0.956986
0.830261
0.855301
1.15632
1.06927
1.02464
0.920482
0.943863
1.17828
1.09844
1.06827
0.982657
1.00493
1.18505
1.11237
1.09209
1.02258
1.04306
1.18247
1.11524
1.10166
1.04458
1.06349
1.17283
1.11008
1.09974
1.05238
1.06899
1.15429
1.0957
1.08794
1.04734
1.06261
1.12631
1.07261
1.06701
1.03276
1.04602
1.09185
1.04399
1.04045
1.009
1.02129
1.05322
1.01066
1.00431
0.978155
0.988857
1.00864
0.969887
0.96066
0.943042
0.950073
0.958228
0.922842
0.911698
0.897118
0.904519
0.903662
0.871678
0.862966
0.847282
0.85408
0.846213
0.817933
0.815897
0.797254
0.800261
0.786446
0.760333
0.758158
0.739607
0.742829
0.724037
0.69954
0.694587
0.673465
0.681992
0.659089
0.636036
0.632267
0.615752
0.62225
0.592661
0.572061
0.57069
0.561545
0.560352
0.525309
0.50665
0.505181
0.498119
0.495895
0.456588
0.440057
0.436378
0.426377
0.425651
0.387362
0.37208
0.368904
0.35787
0.357697
0.317205
0.303376
0.300091
0.290355
0.286365
0.247275
0.234386
0.230405
0.222098
0.219086
0.17678
0.165125
0.15896
0.155894
0.148064
0.109771
0.0989189
0.0952694
0.0938777
0.0833892
0.045803
0.035784
0.0378442
0.03518
0.0234192
-9.33888
-1.74775
6.45703
11.3328
13.7517
-8.28512
-7.19739
0.0206512
5.32364
8.09143
-8.51966
-7.39719
-3.27903
0.635018
2.96496
-8.40504
-7.37779
-5.17972
-2.47674
-0.699055
-8.00231
-7.33964
-6.34813
-4.41604
-3.15234
-7.54277
-7.28665
-7.03251
-5.62246
-4.87165
-7.32821
-7.28774
-7.3645
-6.40106
-6.05886
-7.49457
-7.61661
-7.71812
-7.05144
-6.92465
-7.99657
-8.43329
-8.33991
-7.74406
-7.68122
-8.83166
-9.54271
-9.10417
-8.37485
-8.19517
-9.69863
-10.5732
-9.65243
-8.72784
-8.36073
-9.93828
-10.6471
-9.47241
-8.5359
-8.068
-9.17718
-9.55085
-8.39761
-7.73502
-7.31471
-7.6192
-7.67092
-6.80613
-6.51732
-6.21765
-5.63571
-5.6132
-5.11822
-5.13785
-4.94825
-3.69205
-3.69637
-3.5508
-3.79299
-3.69584
-2.08658
-2.15545
-2.26986
-2.61348
-2.58095
-0.925359
-1.05728
-1.2808
-1.65071
-1.65463
-0.15551
-0.310279
-0.556689
-0.905202
-0.922814
0.323487
0.17686
-0.0434432
-0.341992
-0.364028
0.636851
0.501912
0.319125
0.0768104
0.0550759
0.837232
0.719416
0.576123
0.385106
0.367691
0.965524
0.864487
0.758281
0.610222
0.598462
1.05324
0.964255
0.887213
0.775719
0.767832
1.1157
1.03591
0.979831
0.895987
0.890234
1.15756
1.08586
1.04542
0.979375
0.976663
1.17934
1.11569
1.08737
1.0355
1.03489
1.18693
1.13048
1.11089
1.06946
1.07063
1.18457
1.13372
1.12041
1.08601
1.08844
1.17484
1.12818
1.11716
1.08898
1.09205
1.15652
1.11365
1.10383
1.08028
1.0836
1.12889
1.0901
1.07973
1.06253
1.06537
1.09506
1.05905
1.04968
1.03841
1.03898
1.05583
1.02275
1.01966
1.00785
1.00488
1.01004
0.98079
0.979732
0.969434
0.96487
0.958888
0.933894
0.930978
0.923785
0.918824
0.904505
0.883135
0.881921
0.870711
0.868317
0.847209
0.827941
0.828444
0.810283
0.813303
0.787431
0.768951
0.768603
0.749652
0.754544
0.725085
0.707278
0.704565
0.685111
0.691822
0.660143
0.643304
0.640109
0.625242
0.628751
0.593513
0.578538
0.575667
0.56517
0.564626
0.526352
0.512438
0.50829
0.496553
0.499033
0.458178
0.445712
0.44232
0.432448
0.430764
0.389139
0.378805
0.376585
0.368882
0.364067
0.319004
0.309424
0.307345
0.305104
0.293048
0.24866
0.239253
0.237204
0.236904
0.22612
0.178584
0.168841
0.166854
0.164425
0.155649
0.112398
0.102467
0.0984734
0.0951793
0.0881246
0.0485682
0.0391408
0.0360558
0.0334776
0.0290722
-8.93955
-1.33615
6.47179
11.0801
13.6229
-8.22018
-6.67651
-0.0706599
5.03455
8.03835
-8.46366
-7.25507
-3.63753
0.358125
2.89771
-8.3844
-7.39597
-5.54538
-2.70124
-0.801362
-7.98411
-7.3949
-6.66218
-4.5862
-3.25314
-7.49523
-7.31688
-7.27291
-5.7662
-4.95577
-7.26617
-7.28383
-7.42625
-6.51584
-6.1423
-7.46925
-7.6344
-7.67641
-7.18847
-7.01358
-8.08864
-8.50722
-8.37982
-7.95938
-7.78054
-9.00473
-9.7632
-9.31647
-8.62229
-8.32084
-9.90092
-10.8518
-9.97681
-8.99279
-8.55122
-10.1707
-10.9566
-9.78206
-8.78596
-8.22619
-9.289
-9.75704
-8.61402
-7.94192
-7.4172
-7.64076
-7.72621
-6.92978
-6.69704
-6.30031
-5.62932
-5.61423
-5.21138
-5.30254
-5.01961
-3.69855
-3.71109
-3.64213
-3.9466
-3.76081
-2.1086
-2.17707
-2.33735
-2.75291
-2.64161
-0.946458
-1.07106
-1.33597
-1.7783
-1.71194
-0.175244
-0.328416
-0.607535
-1.02245
-0.975832
0.304604
0.155251
-0.0909584
-0.452578
-0.410979
0.619663
0.476675
0.275368
-0.0269824
0.0143754
0.820784
0.691252
0.53656
0.291121
0.329245
0.949442
0.834454
0.722697
0.526789
0.560632
1.03717
0.934027
0.855713
0.700217
0.730698
1.10239
1.0077
0.952128
0.826919
0.854907
1.14712
1.0601
1.02003
0.917324
0.943887
1.17086
1.09167
1.06429
0.979577
1.00497
1.17951
1.10779
1.08895
1.01977
1.04347
1.17839
1.11256
1.09947
1.0415
1.06379
1.16839
1.10804
1.09816
1.04971
1.06981
1.14892
1.09383
1.08604
1.04465
1.06333
1.12088
1.07107
1.0656
1.03068
1.04713
1.08772
1.0421
1.03706
1.00732
1.02186
1.04926
1.00736
0.998821
0.976485
0.988922
1.00498
0.966443
0.953589
0.938808
0.9492
0.955419
0.920583
0.908011
0.896448
0.904132
0.902156
0.870917
0.864614
0.848634
0.854521
0.845423
0.81698
0.815461
0.792665
0.800387
0.78579
0.7589
0.758921
0.73526
0.743546
0.723612
0.697708
0.697191
0.67795
0.681936
0.658683
0.634133
0.631652
0.615601
0.620245
0.592443
0.569808
0.563324
0.552521
0.553581
0.525086
0.504082
0.496794
0.487734
0.490313
0.457382
0.438779
0.434021
0.424264
0.422716
0.388441
0.372132
0.371049
0.362788
0.354987
0.317973
0.303412
0.300317
0.29744
0.288694
0.247402
0.234199
0.231545
0.23299
0.225195
0.178826
0.16531
0.158019
0.158001
0.150795
0.111008
0.0988284
0.0922084
0.0907217
0.0864039
0.0435954
0.0351964
0.0353608
0.0336145
0.024708
-9.77634
0.712073
7.3089
10.814
13.0006
-8.11963
-5.16793
0.705081
4.85575
7.59126
-8.02229
-6.99415
-3.43227
0.250183
2.53911
-8.13102
-7.27294
-5.42546
-2.72937
-1.09008
-7.91265
-7.30727
-6.51415
-4.53601
-3.43639
-7.44887
-7.23234
-7.1161
-5.68845
-5.02034