/*--------------------------------*- C++ -*----------------------------------*\
| =========                 |                                                 |
| \\      /  F ield         | OpenFOAM: The Open Source CFD Toolbox           |
|  \\    /   O peration     | Version:  2.1.x                                 |
|   \\  /    A nd           | Web:      www.OpenFOAM.org                      |
|    \\/     M anipulation  |                                                 |
\*---------------------------------------------------------------------------*/
FoamFile
{
    version     2.0;
    format      ascii;
    class       surfaceScalarField;
    location    "0.2";
    object      phi;
}
// * * * * * * * * * * * * * * * * * * * * * * * * * * * * * * * * * * * * * //

dimensions      [0 3 -1 0 0 0 0];

internalField   nonuniform List<scalar> 
10050
(
6.69477e-05
-1.51252e-09
5.41445e-09
6.69303e-05
8.97592e-09
8.37866e-09
6.68764e-05
4.32391e-08
1.07364e-08
6.67732e-05
5.23341e-08
5.0843e-08
6.66525e-05
5.19775e-08
6.86976e-08
6.65196e-05
5.55097e-08
7.74376e-08
6.63705e-05
6.07507e-08
8.83709e-08
6.62208e-05
7.36216e-08
7.60085e-08
6.60719e-05
8.15729e-08
6.73727e-08
6.59115e-05
7.56762e-08
8.47005e-08
6.57604e-05
6.79915e-08
8.31561e-08
6.56267e-05
6.12212e-08
7.24172e-08
6.54919e-05
6.9196e-08
6.55906e-08
6.53404e-05
7.15253e-08
7.99807e-08
6.51978e-05
5.78123e-08
8.48334e-08
6.50402e-05
7.89286e-08
7.86091e-08
6.48872e-05
8.23434e-08
7.06532e-08
6.47444e-05
6.53178e-08
7.75381e-08
6.4594e-05
6.90211e-08
8.13303e-08
6.44755e-05
5.8189e-08
6.03436e-08
6.43846e-05
4.65698e-08
4.43211e-08
6.43052e-05
4.38641e-08
3.54915e-08
6.42503e-05
2.89765e-08
2.59909e-08
6.42049e-05
1.94092e-08
2.5979e-08
6.41508e-05
2.62999e-08
2.78345e-08
6.41148e-05
1.58338e-08
2.00943e-08
6.41025e-05
5.0106e-09
7.31947e-09
6.40883e-05
1.31979e-09
1.28587e-08
6.40499e-05
1.43298e-08
2.40376e-08
6.39888e-05
3.12387e-08
2.99233e-08
6.39425e-05
1.69886e-08
2.92817e-08
6.38928e-05
1.79194e-08
3.17802e-08
6.38218e-05
2.5949e-08
4.50184e-08
6.37347e-05
2.27882e-08
6.43594e-08
6.36613e-05
1.56432e-08
5.77796e-08
6.36135e-05
1.99032e-09
4.57444e-08
6.35448e-05
2.43564e-08
4.4357e-08
6.34544e-05
3.71854e-08
5.32184e-08
6.33755e-05
4.97678e-08
2.91301e-08
6.3264e-05
6.7409e-08
4.41611e-08
6.31185e-05
1.16501e-07
2.89747e-08
6.29248e-05
1.10482e-07
8.31974e-08
6.26293e-05
2.56917e-07
3.85668e-08
6.21964e-05
3.39518e-07
9.33933e-08
6.14389e-05
7.62005e-07
-4.5395e-09
6.02639e-05
1.08204e-06
9.29533e-08
5.81371e-05
2.14216e-06
-1.53074e-08
5.47055e-05
3.24326e-06
1.88298e-07
4.84731e-05
6.0488e-06
1.83651e-07
9.72809e-06
4.7301e-07
3.8272e-05
6.90283e-05
1.19096e-08
1.3619e-08
6.90135e-05
1.43229e-08
9.44172e-09
6.90323e-05
7.70178e-09
1.67725e-08
6.90318e-05
1.2537e-08
4.0302e-08
6.89959e-05
3.20273e-08
5.58016e-08
6.89706e-05
1.65288e-08
6.43353e-08
6.89817e-05
3.70719e-10
4.92831e-08
6.90213e-05
-2.07934e-09
3.6114e-08
6.90828e-05
9.36743e-09
1.06237e-08
6.90944e-05
3.16986e-08
3.2408e-08
6.90791e-05
3.70546e-08
4.62165e-08
6.90669e-05
2.51278e-08
4.83696e-08
6.90859e-05
1.24272e-08
3.77369e-08
6.91229e-05
9.54787e-09
2.49514e-08
6.9115e-05
1.95886e-08
4.60855e-08
6.91263e-05
1.84985e-08
4.91621e-08
6.91333e-05
3.1343e-08
4.3965e-08
6.90957e-05
4.98899e-08
5.3104e-08
6.90842e-05
2.9628e-08
5.08536e-08
6.9108e-05
1.4454e-08
1.99807e-08
6.911e-05
1.10712e-08
3.34335e-08
6.91119e-05
5.72894e-09
3.62924e-08
6.91172e-05
1.04945e-08
1.32004e-08
6.91061e-05
5.3584e-09
2.51051e-08
6.91044e-05
-1.19845e-09
2.91586e-08
6.91167e-05
-7.25451e-09
1.07923e-08
6.91208e-05
-1.37275e-08
1.46817e-08
6.91084e-05
-1.40073e-08
2.76648e-08
6.91086e-05
-1.12576e-08
2.54522e-08
6.91322e-05
-1.88545e-08
2.65183e-08
6.91452e-05
-2.36239e-08
2.75236e-08
6.91467e-05
-1.4794e-08
3.12734e-08
6.91498e-05
-1.08338e-08
3.36379e-08
6.91235e-05
-9.9188e-09
5.90796e-08
6.90942e-05
-2.06968e-08
6.56425e-08
6.90933e-05
-3.68222e-08
3.97108e-08
6.91144e-05
-3.98687e-08
4.30993e-08
6.91422e-05
-2.1173e-08
3.05507e-08
6.91398e-05
2.28662e-08
2.93387e-08
6.91089e-05
7.15604e-08
2.66546e-08
6.90089e-05
1.41995e-07
7.45475e-08
6.88241e-05
2.46692e-07
4.85716e-08
6.84999e-05
4.61108e-07
1.19998e-07
6.81312e-05
6.75368e-07
3.28713e-08
6.75099e-05
1.23655e-06
1.46784e-07
6.6606e-05
1.96995e-06
1.59442e-08
6.51252e-05
3.46601e-06
1.56942e-07
6.25444e-05
5.74674e-06
7.73711e-08
5.90781e-05
9.22031e-06
2.94792e-07
1.53653e-05
4.01035e-07
5.30398e-05
6.89556e-05
-9.86985e-09
-1.39136e-09
6.89725e-05
-1.0265e-08
7.6469e-09
6.89471e-05
-2.44047e-09
3.56126e-08
6.89293e-05
-3.72879e-09
3.40008e-08
6.89384e-05
-8.08722e-09
3.10221e-08
6.89046e-05
-9.32918e-09
5.97123e-08
6.88444e-05
-1.86186e-08
7.91941e-08
6.88267e-05
-3.66815e-08
5.23188e-08
6.88366e-05
-3.67567e-08
3.6202e-08
6.88787e-05
-3.81378e-08
2.76802e-08
6.8946e-05
-4.38298e-08
1.36421e-08
6.89737e-05
-3.78e-08
3.52615e-08
6.89837e-05
-4.0936e-08
4.33192e-08
6.89922e-05
-2.77543e-08
2.87626e-08
6.89839e-05
6.78227e-10
2.72335e-08
6.8963e-05
-1.1003e-08
5.04255e-08
6.89885e-05
-3.67926e-08
4.25996e-08
6.90375e-05
-3.52393e-08
3.6153e-08
6.90453e-05
-2.95005e-08
5.13075e-08
6.90407e-05
-3.84467e-08
5.7517e-08
6.90129e-05
-3.05305e-08
6.94041e-08
6.89778e-05
-2.33813e-08
6.41754e-08
6.89944e-05
-4.85129e-08
4.24252e-08
6.90242e-05
-6.60201e-08
4.15525e-08
6.90192e-05
-4.12695e-08
4.51399e-08
6.89945e-05
-2.03385e-08
3.77221e-08
6.89704e-05
-2.84461e-08
3.88646e-08
6.89426e-05
-2.85191e-08
4.23103e-08
6.8938e-05
-4.48548e-08
3.8129e-08
6.89593e-05
-6.56968e-08
2.55988e-08
6.89531e-05
-5.87464e-08
4.13412e-08
6.89667e-05
-6.30709e-08
3.46459e-08
6.90131e-05
-7.51769e-08
1.79828e-08
6.90394e-05
-7.6644e-08
4.03542e-08
6.90373e-05
-6.8903e-08
5.03007e-08
6.89731e-05
-3.67643e-08
6.41803e-08
6.88696e-05
-1.28097e-08
7.64826e-08
6.87859e-05
-1.15392e-08
7.40491e-08
6.87249e-05
3.32775e-08
5.05211e-08
6.87159e-05
4.09819e-08
3.96082e-08
6.87176e-05
1.06241e-07
3.40883e-08
6.87152e-05
2.21157e-07
2.79364e-08
6.87606e-05
3.93832e-07
2.18429e-08
6.87268e-05
6.9325e-07
1.59076e-08
6.87798e-05
1.17557e-06
7.97654e-09
6.85624e-05
2.14605e-06
4.13408e-08
6.84816e-05
3.55711e-06
-1.03502e-08
6.73868e-05
6.69099e-06
1.50557e-07
6.6152e-05
1.0396e-05
5.90703e-08
1.84755e-05
4.35127e-07
6.26067e-05
6.88277e-05
1.10064e-09
4.61446e-09
6.88198e-05
-8.94284e-09
6.576e-09
6.88182e-05
-3.29422e-08
3.21246e-08
6.88161e-05
-4.75969e-08
4.59959e-08
6.88355e-05
-6.95232e-08
4.20579e-08
6.88469e-05
-5.92855e-08
3.85327e-08
6.88379e-05
-5.42807e-08
4.47112e-08
6.87997e-05
-5.54312e-08
5.6924e-08
6.87937e-05
-8.07506e-08
4.9974e-08
6.88271e-05
-1.0103e-07
2.95384e-08
6.8842e-05
-9.05081e-08
3.17703e-08
6.88469e-05
-8.22289e-08
3.9442e-08
6.88243e-05
-7.88265e-08
6.05023e-08
6.88304e-05
-8.48009e-08
5.10059e-08
6.88735e-05
-8.58867e-08
4.34499e-08
6.88819e-05
-6.97585e-08
5.03363e-08
6.88794e-05
-7.10054e-08
3.6748e-08
6.88825e-05
-7.89176e-08
4.05384e-08
6.88802e-05
-7.09908e-08
4.38185e-08
6.88523e-05
-6.02975e-08
4.97042e-08
6.88496e-05
-7.14162e-08
4.35732e-08
6.88839e-05
-7.85832e-08
2.08908e-08
6.88666e-05
-7.28121e-08
4.16397e-08
6.88307e-05
-8.02991e-08
5.01332e-08
6.88699e-05
-1.00149e-07
1.96907e-08
6.89355e-05
-9.777e-08
1.18345e-08
6.8966e-05
-8.45461e-08
2.56496e-08
6.89847e-05
-8.13926e-08
3.41344e-08
6.89859e-05
-8.4759e-08
3.87286e-08
6.89784e-05
-9.1336e-08
3.31424e-08
6.8973e-05
-9.70867e-08
4.37026e-08
6.89553e-05
-9.78966e-08
5.25747e-08
6.89148e-05
-8.84792e-08
5.38257e-08
6.88393e-05
-7.70777e-08
7.58932e-08
6.8756e-05
-6.94045e-08
8.38e-08
6.87229e-05
-7.99222e-08
7.62889e-08
6.87047e-05
-6.91716e-08
7.45113e-08
6.86938e-05
-5.62644e-08
5.56753e-08
6.8727e-05
-3.54035e-08
3.54763e-08
6.87143e-05
2.54908e-08
2.81309e-08
6.87349e-05
6.15781e-08
2.40463e-08
6.87993e-05
1.36817e-07
1.99822e-08
6.89266e-05
2.50453e-07
1.60902e-08
6.91621e-05
4.425e-07
1.5234e-08
6.9532e-05
7.93681e-07
1.19725e-08
7.03519e-05
1.31978e-06
6.41744e-09
7.14235e-05
2.49838e-06
-1.28689e-08
7.39771e-05
4.12281e-06
1.45236e-08
7.44486e-05
9.89985e-06
2.47641e-08
1.79602e-05
4.20269e-08
7.49217e-05
6.70393e-05
-3.83272e-09
6.70253e-05
5.03025e-09
6.6952e-05
4.04321e-08
6.68514e-05
5.29834e-08
6.67166e-05
6.53231e-08
6.65854e-05
7.18612e-08
6.64557e-05
7.54434e-08
6.63132e-05
8.70402e-08
6.61658e-05
6.66539e-08
6.60126e-05
5.22238e-08
6.58536e-05
6.84968e-08
6.56875e-05
8.37895e-08
6.55376e-05
7.11384e-08
6.53793e-05
7.34887e-08
6.52203e-05
7.3134e-08
6.50764e-05
7.40662e-08
6.4931e-05
7.44378e-08
6.4792e-05
6.00699e-08
6.46564e-05
6.46162e-08
6.45185e-05
7.75698e-08
6.43805e-05
6.6638e-08
6.42338e-05
6.81365e-08
6.40872e-05
7.37026e-08
6.39325e-05
7.44804e-08
6.37643e-05
6.79965e-08
6.35879e-05
7.86039e-08
6.34182e-05
8.51514e-08
6.3255e-05
8.18176e-08
6.30876e-05
8.27109e-08
6.29269e-05
6.92799e-08
6.27596e-05
7.02745e-08
6.25785e-05
8.3137e-08
6.23889e-05
1.01139e-07
6.22007e-05
1.11137e-07
6.20187e-05
1.12628e-07
6.18291e-05
1.09646e-07
6.16574e-05
1.02504e-07
6.15013e-05
9.98908e-08
6.13793e-05
8.65662e-08
6.13633e-05
4.14506e-08
6.14129e-05
1.20646e-08
6.15344e-05
1.52946e-08
6.17795e-05
5.36004e-09
6.22237e-05
-1.75462e-09
6.30401e-05
-2.27222e-08
6.4389e-05
-2.90421e-08
6.69664e-05
-7.90554e-08
7.1143e-05
-5.37867e-08
8.12444e-05
-2.01599e-07
3.93438e-08
9.91653e-05
6.91472e-05
2.82441e-09
-1.05889e-08
6.9141e-05
1.17314e-08
2.85974e-09
6.90872e-05
3.08051e-08
3.36597e-08
6.90656e-05
4.59366e-08
2.65199e-08
6.9084e-05
4.01433e-08
1.0185e-08
6.91151e-05
3.93049e-08
7.05553e-09
6.91493e-05
3.32763e-08
2.09013e-08
6.91418e-05
4.31588e-08
4.03212e-08
6.91405e-05
3.30757e-08
3.56183e-08
6.91804e-05
2.57126e-08
1.90444e-08
6.92381e-05
1.57805e-08
9.68844e-09
6.92529e-05
2.44219e-08
3.31767e-08
6.92263e-05
4.26963e-08
4.95436e-08
6.92433e-05
2.79973e-08
3.50005e-08
6.92889e-05
2.23873e-08
1.67849e-08
6.92889e-05
5.01136e-08
2.84787e-08
6.92815e-05
5.66864e-08
2.13701e-08
6.92885e-05
5.16061e-08
1.89877e-08
6.93018e-05
4.75275e-08
2.04243e-08
6.93155e-05
3.52635e-08
1.14199e-08
6.92955e-05
4.88491e-08
1.54915e-08
6.92362e-05
5.59788e-08
3.88175e-08
6.91995e-05
3.06125e-08
3.20171e-08
6.91907e-05
3.34694e-08
1.32773e-09
6.91877e-05
3.33644e-08
-2.51484e-09
6.92001e-05
1.26384e-08
-4.91887e-09
6.92101e-05
1.40397e-08
-1.67463e-08
6.92151e-05
1.0147e-08
-2.28076e-09
6.9212e-05
1.311e-08
1.40212e-08
6.92149e-05
2.71645e-08
-9.27483e-11
6.92242e-05
1.77648e-08
2.20617e-09
6.9224e-05
1.6781e-08
1.51278e-08
6.92351e-05
1.42277e-08
1.97011e-08
6.92473e-05
1.84226e-08
3.37291e-08
6.9247e-05
1.79074e-08
4.02422e-08
6.92561e-05
7.85221e-09
2.87368e-08
6.92404e-05
2.52959e-08
3.47757e-08
6.92257e-05
3.96201e-08
2.82893e-08
6.9196e-05
4.07074e-08
1.81692e-08
6.91052e-05
9.02233e-08
4.46758e-08
6.89865e-05
1.16529e-07
3.12053e-08
6.88833e-05
1.8592e-07
4.87076e-10
6.87169e-05
2.37574e-07
-3.26684e-08
6.8378e-05
4.55342e-07
-2.30525e-08
6.78324e-05
5.62581e-07
-2.1443e-08
6.67285e-05
1.20012e-06
-3.30194e-09
6.49244e-05
1.78866e-06
1.22242e-10
6.18515e-05
3.23843e-06
2.27667e-08
5.66305e-05
5.35141e-06
5.32815e-08
9.15759e-06
8.78955e-08
4.7858e-05
7.09641e-05
-2.99738e-09
-4.75754e-09
7.09543e-05
1.93159e-08
1.16082e-08
7.0952e-05
2.47883e-08
2.51875e-08
7.09844e-05
1.5133e-08
3.86635e-08
7.1048e-05
5.11438e-09
2.72502e-08
7.11363e-05
8.31091e-09
6.99906e-09
7.12114e-05
9.81736e-09
-2.31083e-09
7.12934e-05
3.69115e-09
-6.43543e-09
7.13018e-05
2.21868e-08
1.3132e-08
7.13348e-05
1.54649e-08
9.61806e-09
7.13842e-05
-9.00393e-09
2.15843e-08
7.14285e-05
2.04715e-09
2.6455e-08
7.14663e-05
2.39596e-08
1.8692e-08
7.1485e-05
1.24134e-08
2.18699e-08
7.15358e-05
-9.20894e-09
2.68346e-08
7.16255e-05
6.13228e-09
3.4255e-09
7.17184e-05
1.55146e-08
-7.79236e-09
7.18188e-05
1.16602e-08
-7.31643e-09
7.19257e-05
9.06043e-09
-1.76007e-08
7.19477e-05
2.74173e-08
5.81185e-09
7.20015e-05
1.63508e-08
1.21326e-08
7.20906e-05
6.48755e-09
-3.26568e-09
7.20916e-05
2.59431e-08
1.68196e-08
7.21098e-05
3.03461e-08
1.00761e-08
7.21703e-05
9.00901e-09
-6.96204e-09
7.21761e-05
9.85914e-09
7.75505e-09
7.21995e-05
4.19253e-09
1.10299e-09
7.22405e-05
-4.7268e-09
1.50537e-09
7.22715e-05
6.73688e-09
8.39033e-10
7.23245e-05
-5.93301e-09
6.68213e-09
7.23531e-05
1.08806e-09
1.55621e-08
7.23834e-05
6.72434e-09
1.09977e-08
7.2402e-05
2.63626e-10
2.90269e-08
7.24582e-05
-1.12686e-08
3.26217e-08
7.25389e-05
-2.21992e-08
2.49896e-08
7.25346e-05
1.66e-09
5.02693e-08
7.25387e-05
1.01549e-08
5.41414e-08
7.25524e-05
2.71364e-08
2.93339e-08
7.25599e-05
4.3413e-08
1.9096e-08
7.25879e-05
6.78989e-08
2.09525e-08
7.26551e-05
1.14027e-07
9.83759e-09
7.26898e-05
2.14631e-07
-1.47692e-08
7.26574e-05
3.84927e-07
5.03876e-09
7.25037e-05
6.33826e-07
8.0795e-09
7.21206e-05
1.06722e-06
2.51808e-08
7.14458e-05
1.86784e-06
2.30317e-08
7.01583e-05
3.1938e-06
3.93715e-08
6.79769e-05
5.45862e-06
3.85778e-08
6.49886e-05
8.57358e-06
6.09224e-08
1.40639e-05
8.36308e-08
6.03997e-05
7.10485e-05
-7.58899e-09
-4.41435e-09
7.11022e-05
-1.8072e-08
-8.60009e-09
7.11679e-05
-1.20747e-08
6.77103e-09
7.11709e-05
1.1305e-08
3.48517e-08
7.11642e-05
3.15296e-09
3.96591e-08
7.12476e-05
-2.81911e-08
1.28048e-08
7.13639e-05
-3.84499e-08
1.11629e-08
7.14357e-05
-2.30276e-08
7.22278e-09
7.14895e-05
-1.22592e-08
1.68821e-08
7.15379e-05
-2.20181e-08
1.68008e-08
7.15436e-05
-1.03447e-08
9.28719e-09
7.15766e-05
-6.89373e-09
1.12037e-08
7.16284e-05
-1.02987e-08
2.57172e-08
7.16124e-05
1.1457e-08
4.57329e-08
7.15748e-05
2.4982e-08
3.07012e-08
7.16197e-05
1.15294e-08
9.73075e-11
7.16814e-05
-1.79547e-08
1.43356e-08
7.17227e-05
-1.20917e-08
1.85744e-08
7.18054e-05
-2.18105e-08
-4.74005e-10
7.19205e-05
-2.66604e-08
-3.48155e-09
7.20099e-05
-2.10243e-08
1.73727e-08
7.20797e-05
-2.52654e-08
2.60912e-08
7.21528e-05
-1.53248e-08
1.0616e-08
7.22308e-05
-1.6983e-08
1.08617e-08
7.22903e-05
-2.90158e-08
2.36759e-08
7.23168e-05
-6.63223e-09
2.7752e-08
7.23179e-05
5.65347e-09
3.62282e-08
7.23067e-05
8.00734e-09
4.07614e-08
7.23471e-05
-7.94418e-09
1.24949e-08
7.23909e-05
-3.79042e-08
1.3727e-08
7.24548e-05
-3.88269e-08
1.74018e-08
7.25035e-05
-2.0385e-08
1.30077e-08
7.25315e-05
-2.67428e-08
1.69714e-08
7.25559e-05
-2.36614e-08
2.83751e-08
7.256e-05
-1.81583e-08
4.21803e-08
7.26039e-05
-9.95738e-09
3.1905e-08
7.264e-05
8.29537e-09
4.21686e-08
7.26881e-05
5.06974e-09
4.80508e-08
7.27127e-05
2.95471e-08
3.98234e-08
7.27502e-05
3.6172e-08
3.37524e-08
7.27945e-05
9.46809e-08
9.15163e-09
7.28465e-05
1.92007e-07
-1.40311e-09
7.29319e-05
3.39278e-07
-1.79562e-08
7.29678e-05
6.20272e-07
-6.41231e-09
7.30278e-05
1.04697e-06
-3.17903e-08
7.29244e-05
1.99823e-06
1.43819e-08
7.28661e-05
3.28877e-06
-4.70387e-08
7.20891e-05
6.33408e-06
5.21364e-08
7.10669e-05
9.69437e-06
-3.95801e-08
1.69616e-05
1.21083e-07
6.84832e-05
7.09087e-05
-7.51622e-09
6.38007e-09
7.08928e-05
-1.01188e-08
1.45713e-08
7.09219e-05
-1.98956e-08
1.08726e-08
7.10135e-05
-4.28424e-08
8.49627e-09
7.10826e-05
-3.28878e-08
9.06626e-09
7.10947e-05
-2.12651e-08
1.94537e-08
7.11135e-05
-3.18551e-08
1.93458e-08
7.11841e-05
-4.37768e-08
7.05869e-09
7.12502e-05
-5.6152e-08
2.77306e-08
7.13017e-05
-6.54697e-08
2.15827e-08
7.13674e-05
-4.12136e-08
-3.08258e-09
7.14244e-05
-2.7041e-08
2.55822e-09
7.15238e-05
-6.2519e-08
1.33112e-08
7.16156e-05
-5.45585e-08
2.52473e-08
7.17085e-05
-3.99682e-08
1.54715e-08
7.18166e-05
-4.49302e-08
-1.26319e-09
7.18401e-05
-3.0956e-08
2.61958e-08
7.18997e-05
-4.97539e-08
1.86207e-08
7.19532e-05
-4.51639e-08
1.36649e-08
7.19942e-05
-3.32068e-08
1.52634e-08
7.20614e-05
-4.19436e-08
-2.75296e-09
7.20705e-05
-3.50696e-08
2.16746e-08
7.21134e-05
-4.21916e-08
2.55986e-08
7.21918e-05
-5.64277e-08
1.10884e-08
7.22039e-05
-4.97285e-08
2.83716e-08
7.22018e-05
-2.49921e-08
3.22727e-08
7.22467e-05
-2.40975e-08
1.05244e-08
7.23242e-05
-3.81312e-08
2.75624e-09
7.238e-05
-4.7167e-08
2.21545e-08
7.23925e-05
-5.49266e-08
3.76603e-08
7.24587e-05
-7.17712e-08
1.04035e-08
7.25505e-05
-7.25454e-08
1.2986e-08
7.25768e-05
-4.20399e-08
4.28376e-08
7.26443e-05
-4.9891e-08
3.45489e-08
7.27198e-05
-4.4792e-08
3.49667e-08
7.27815e-05
-4.24749e-08
4.7161e-08
7.28709e-05
-4.85377e-08
4.19073e-08
7.29091e-05
-2.29152e-08
4.54779e-08
7.29315e-05
7.82008e-09
3.4805e-08
7.29383e-05
2.30184e-08
3.44214e-08
7.30087e-05
3.23286e-08
1.60494e-08
7.31131e-05
1.16664e-07
-9.10161e-09
7.32681e-05
2.03091e-07
-2.73741e-09
7.35308e-05
3.78185e-07
-5.38198e-09
7.39143e-05
6.82156e-07
-6.71294e-09
7.47397e-05
1.19065e-06
-1.14196e-08
7.57899e-05
2.25163e-06
-2.59079e-08
7.83942e-05
3.75999e-06
-1.5621e-08
7.89138e-05
9.25282e-06
-5.33169e-08
1.61365e-05
2.44771e-08
7.97564e-05
6.89129e-05
1.68665e-09
6.89052e-05
2.59381e-09
6.8926e-05
-2.16052e-10
6.89232e-05
1.28809e-08
6.89325e-05
2.31748e-08
6.89629e-05
2.01415e-08
6.89852e-05
2.13073e-08
6.90079e-05
2.05446e-08
6.89853e-05
3.31553e-08
6.89442e-05
2.78423e-08
6.89485e-05
2.29385e-08
6.89796e-05
2.56853e-08
6.89615e-05
2.6688e-08
6.89623e-05
1.82093e-08
6.89764e-05
1.90348e-08
6.89766e-05
2.89523e-08
6.89894e-05
3.06059e-08
6.8974e-05
2.57382e-08
6.89822e-05
1.12913e-08
6.90201e-05
6.46314e-09
6.90339e-05
1.08774e-08
6.90539e-05
1.30505e-08
6.90577e-05
2.77198e-08
6.90293e-05
4.64075e-08
6.9002e-05
4.5656e-08
6.90192e-05
3.64026e-08
6.90376e-05
4.25868e-08
6.90331e-05
4.81759e-08
6.90139e-05
5.48028e-08
6.8966e-05
6.21888e-08
6.89159e-05
4.86623e-08
6.88818e-05
4.466e-08
6.88878e-05
5.31269e-08
6.88816e-05
6.74366e-08
6.88765e-05
7.29498e-08
6.8881e-05
6.26759e-08
6.88598e-05
7.51683e-08
6.88736e-05
6.31103e-08
6.89337e-05
3.43543e-08
6.89656e-05
3.24978e-08
6.90013e-05
8.78634e-09
6.91421e-05
-8.84576e-09
6.93604e-05
-9.87323e-09
6.97509e-05
-1.40805e-08
7.04399e-05
-2.9599e-08
7.16322e-05
-3.06493e-08
7.38706e-05
-6.58683e-08
7.76459e-05
-6.90552e-08
8.68438e-05
-1.46708e-07
3.68402e-09
0.000103016
6.88434e-05
7.62377e-09
9.30266e-10
6.883e-05
1.42669e-08
1.98647e-09
6.88335e-05
3.24301e-08
-2.19842e-09
6.88164e-05
5.10301e-08
-7.42259e-09
6.87804e-05
6.47019e-08
-1.84917e-08
6.8756e-05
4.95525e-08
-1.81686e-08
6.87905e-05
1.0819e-08
-2.43626e-08
6.88476e-05
1.30868e-08
-2.99175e-08
6.88777e-05
3.61767e-08
-3.06068e-08
6.88905e-05
3.7017e-08
-3.07525e-08
6.88755e-05
5.07585e-08
-2.61223e-08
6.8899e-05
4.30335e-08
-3.33443e-08
6.8955e-05
2.40473e-08
-3.04534e-08
6.89665e-05
3.4949e-08
-1.15189e-08
6.8946e-05
5.48258e-08
-1.75373e-08
6.89583e-05
4.84131e-08
-3.22188e-08
6.8987e-05
3.76961e-08
-4.50249e-08
6.90064e-05
3.6365e-08
-3.6793e-08
6.90473e-05
2.03001e-08
-4.07659e-08
6.9048e-05
3.83131e-08
-2.76415e-08
6.90183e-05
5.77127e-08
-1.24825e-08
6.90528e-05
2.83439e-08
-2.40212e-08
6.91027e-05
2.31255e-08
-4.10339e-08
6.9108e-05
3.63151e-08
-4.02924e-08
6.91026e-05
3.59096e-08
-3.29748e-08
6.90864e-05
3.36733e-08
-2.2376e-08
6.90425e-05
3.70326e-08
-9.96292e-09
6.9023e-05
2.92675e-08
-1.19986e-08
6.90433e-05
7.91489e-09
-1.41968e-08
6.90223e-05
2.81784e-08
-7.30866e-09
6.89796e-05
3.87132e-08
6.23282e-09
6.8957e-05
1.41759e-08
2.35599e-08
6.89414e-05
2.03274e-08
1.49343e-08
6.89625e-05
1.5667e-08
-2.97389e-09
6.90046e-05
3.18408e-09
-5.03471e-09
6.89977e-05
2.80379e-08
7.52311e-09
6.89786e-05
4.27262e-08
1.11584e-08
6.89446e-05
5.03313e-08
1.19942e-08
6.89127e-05
4.63298e-08
3.72546e-09
6.88853e-05
7.44492e-08
-2.36072e-09
6.88074e-05
1.08075e-07
9.84529e-10
6.86405e-05
1.63995e-07
3.45336e-09
6.83963e-05
2.14899e-07
-3.36307e-09
6.79642e-05
4.67915e-07
-5.89461e-08
6.73813e-05
6.07439e-07
-4.59483e-08
6.62655e-05
1.20004e-06
-8.75043e-08
6.45367e-05
1.79085e-06
-6.19663e-08
6.14579e-05
3.20369e-06
-1.02096e-07
5.62859e-05
5.34216e-06
-1.16909e-07
9.17042e-06
-2.04357e-07
4.74077e-05
7.09815e-05
2.80978e-09
1.08769e-08
7.09869e-05
9.54297e-09
1.10242e-08
7.10285e-05
1.47637e-08
1.17282e-09
7.11239e-05
1.46751e-08
-2.03581e-08
7.12393e-05
1.6879e-08
-4.02579e-08
7.12852e-05
2.03265e-08
-9.6945e-09
7.12646e-05
1.69162e-08
1.21791e-08
7.12802e-05
2.15055e-09
-1.11002e-08
7.13353e-05
1.38306e-08
-1.96014e-08
7.13686e-05
2.56786e-08
-1.23231e-08
7.14629e-05
-1.27902e-08
-9.17047e-09
7.15521e-05
-1.83817e-08
-1.34612e-09
7.15958e-05
1.28045e-08
-1.38006e-08
7.16432e-05
1.56061e-08
-6.16113e-09
7.1736e-05
-7.58345e-09
-3.53026e-09
7.18263e-05
-5.59092e-09
-3.29166e-08
7.18718e-05
1.88796e-08
-3.44585e-08
7.19069e-05
2.10904e-08
-2.71167e-08
7.19146e-05
1.67015e-08
-2.17242e-08
7.19788e-05
2.06366e-08
-4.07044e-08
7.2065e-05
8.49812e-09
-2.48571e-08
7.2074e-05
1.39293e-08
2.13129e-09
7.21223e-05
7.66592e-09
-1.60696e-08
7.21971e-05
1.20751e-08
-4.04379e-08
7.22301e-05
1.66644e-08
-2.07418e-08
7.22671e-05
5.62646e-09
-1.1568e-09
7.22981e-05
1.76013e-08
-1.0459e-08
7.231e-05
1.82762e-08
5.39835e-10
7.22925e-05
7.49818e-09
1.87843e-08
7.23293e-05
3.34869e-09
-5.2998e-09
7.24076e-05
-9.67919e-11
-2.38871e-08
7.24175e-05
-1.7487e-09
1.70256e-08
7.24673e-05
-1.58778e-08
1.54295e-08
7.25321e-05
-1.65381e-08
-4.73751e-11
7.25545e-05
-2.93566e-09
8.71741e-09
7.26536e-05
-1.49966e-08
-5.79223e-09
7.27448e-05
-3.13929e-09
8.88098e-09
7.27813e-05
3.11276e-08
1.19959e-08
7.27713e-05
6.30729e-08
1.23499e-08
7.27844e-05
8.58692e-08
-3.58426e-09
7.27896e-05
1.34333e-07
-2.16423e-08
7.27401e-05
2.07226e-07
-8.49945e-09
7.26241e-05
3.66679e-07
-3.07501e-08
7.2491e-05
6.21484e-07
-1.23435e-08
7.21063e-05
1.08504e-06
-6.77165e-08
7.14929e-05
1.83333e-06
3.11736e-09
7.02138e-05
3.16323e-06
-5.38542e-08
6.80985e-05
5.38872e-06
-3.12191e-08
6.50279e-05
8.5597e-06
-8.59524e-08
1.39387e-05
-2.17192e-07
6.05604e-05
7.10687e-05
3.02752e-09
-2.39917e-09
7.10665e-05
4.89169e-09
-1.68312e-09
7.10999e-05
-7.7173e-09
-4.14461e-09
7.11958e-05
-1.77599e-08
-2.86681e-08
7.13121e-05
-2.73895e-08
-3.2285e-08
7.13642e-05
-2.668e-08
7.64164e-09
7.14052e-05
-2.55509e-08
1.26383e-08
7.14338e-05
-1.51955e-08
-4.02456e-09
7.14987e-05
-1.51649e-08
-1.90301e-08
7.1597e-05
-2.87076e-08
-2.71385e-08
7.16408e-05
-3.32289e-08
-1.40522e-08
7.16516e-05
-2.62496e-08
8.26659e-09
7.1719e-05
-2.73232e-08
-1.57793e-09
7.18067e-05
-1.50454e-08
-1.12443e-08
7.18185e-05
4.53978e-09
6.7063e-09
7.18075e-05
-1.17068e-09
6.71677e-09
7.18608e-05
-6.06528e-09
-1.402e-08
7.19174e-05
-7.58649e-09
-9.36315e-09
7.19708e-05
-8.95531e-09
-2.81941e-08
7.2043e-05
-1.15071e-08
-4.35932e-08
7.21463e-05
-4.03368e-08
-3.70221e-08
7.2244e-05
-2.73649e-08
-3.03708e-08
7.22874e-05
-5.17776e-09
-1.98758e-08
7.23652e-05
-3.15707e-08
-2.32881e-08
7.2444e-05
-2.50144e-08
-1.35253e-08
7.24616e-05
9.10362e-10
1.49476e-08
7.25114e-05
-1.56365e-08
1.95962e-08
7.25919e-05
-2.29152e-08
1.50356e-09
7.25875e-05
3.99067e-09
2.03393e-08
7.2616e-05
-1.45716e-08
3.21936e-09
7.26885e-05
-4.81855e-08
-7.05238e-09
7.27098e-05
-2.31706e-08
1.31549e-08
7.26943e-05
3.7757e-09
1.27993e-08
7.27284e-05
-2.17692e-08
-5.29871e-10
7.28082e-05
-3.11731e-08
-9.37291e-09
7.2826e-05
-7.17898e-09
6.32677e-09
7.28487e-05
-9.08156e-10
1.71872e-08
7.28946e-05
1.51331e-08
1.81546e-08
7.2973e-05
2.99139e-08
-5.42705e-09
7.30627e-05
5.97603e-08
-2.98011e-08
7.30986e-05
1.19992e-07
-1.24409e-08
7.31187e-05
1.8945e-07
-3.68547e-09
7.31383e-05
3.35314e-07
-6.2218e-09
7.31505e-05
6.33199e-07
-3.0256e-08
7.31728e-05
1.03019e-06
6.92807e-10
7.30999e-05
1.99121e-06
-7.05836e-08
7.29618e-05
3.23715e-06
1.71624e-08
7.22713e-05
6.29427e-06
-1.62971e-07
7.11388e-05
9.64669e-06
5.94896e-09
1.68451e-05
-3.52783e-07
6.87063e-05
7.09593e-05
-7.63481e-09
-7.42233e-10
7.09969e-05
-1.61301e-08
-2.0286e-09
7.10288e-05
-2.76097e-08
-1.05783e-09
7.10843e-05
-3.8866e-08
-2.59489e-08
7.11279e-05
-2.97566e-08
-3.20836e-08
7.11453e-05
-2.73413e-08
2.72679e-09
7.11604e-05
-3.19321e-08
1.06316e-08
7.12028e-05
-4.02112e-08
-1.03419e-08
7.12863e-05
-5.81868e-08
-1.2764e-08
7.13483e-05
-6.45218e-08
-4.63616e-09
7.13677e-05
-4.42325e-08
-1.14149e-08
7.13986e-05
-3.47996e-08
-1.98382e-08
7.14714e-05
-6.45391e-08
-2.22982e-08
7.15765e-05
-7.12549e-08
-2.36619e-08
7.16704e-05
-5.21521e-08
-2.17417e-08
7.17103e-05
-3.22331e-08
-1.00152e-08
7.1794e-05
-4.08927e-08
-2.27013e-08
7.18738e-05
-5.42741e-08
-1.44641e-08
7.19596e-05
-5.72302e-08
-2.39322e-08
7.20686e-05
-5.62917e-08
-4.89716e-08
7.21066e-05
-4.89901e-08
-3.2039e-08
7.21835e-05
-6.25754e-08
-2.0024e-08
7.22815e-05
-6.02128e-08
-1.73335e-08
7.2292e-05
-4.07439e-08
9.71961e-09
7.23377e-05
-5.14666e-08
9.13979e-09
7.24285e-05
-5.00896e-08
-7.54564e-09
7.24513e-05
-3.0019e-08
2.13873e-09
7.2442e-05
-3.59425e-08
2.50871e-08
7.24927e-05
-4.65247e-08
2.19747e-08
7.25731e-05
-5.27942e-08
-4.52681e-09
7.25858e-05
-5.14216e-08
8.58543e-10
7.26304e-05
-5.40368e-08
-6.9681e-10
7.27232e-05
-4.74095e-08
1.23789e-09
7.275e-05
-2.35215e-08
9.48458e-09
7.27618e-05
-1.66956e-08
8.64504e-09
7.28263e-05
-3.30929e-08
8.65056e-09
7.28889e-05
-2.5087e-08
3.48942e-09
7.29496e-05
-6.47293e-09
6.36538e-09
7.30084e-05
3.44467e-10
5.5635e-09
7.31062e-05
1.25422e-08
-1.61621e-08
7.32314e-05
2.261e-08
-1.17424e-08
7.3298e-05
1.14072e-07
-3.57336e-10
7.34291e-05
2.09397e-07
-7.94022e-09
7.36759e-05
3.94097e-07
-1.30527e-08
7.403e-05
6.87318e-07
-1.79737e-08
7.48555e-05
1.19204e-06
-3.77014e-08
7.5865e-05
2.23716e-06
-3.54285e-08
7.85102e-05
3.70523e-06
-7.18331e-08
7.90215e-05
9.16646e-06
-8.44035e-08
1.60849e-05
-1.55003e-07
7.99612e-05
6.89018e-05
-3.00054e-09
6.88926e-05
-4.32883e-09
6.88791e-05
-1.43539e-08
6.88723e-05
-1.91377e-08
6.88969e-05
-3.12412e-08
6.8917e-05
-2.72368e-08
6.89212e-05
-1.48391e-08
6.89092e-05
-7.70393e-09
6.88893e-05
-5.11423e-09
6.88548e-05
-2.19099e-09
6.88487e-05
-1.51429e-08
6.88711e-05
-3.1576e-08
6.88585e-05
-2.52565e-08
6.88272e-05
-2.17546e-08
6.88187e-05
-2.45795e-08
6.88562e-05
-4.07777e-08
6.88959e-05
-4.99831e-08
6.89101e-05
-4.27958e-08
6.89091e-05
-4.4868e-08
6.89117e-05
-5.24541e-08
6.89222e-05
-4.86287e-08
6.89067e-05
-3.39816e-08
6.89005e-05
-2.63716e-08
6.89289e-05
-2.26495e-08
6.89111e-05
1.19469e-08
6.88823e-05
1.51516e-08
6.88914e-05
3.47875e-09
6.88925e-05
1.10879e-08
6.88868e-05
1.40021e-08
6.88885e-05
7.63282e-09
6.88663e-05
1.9435e-08
6.88325e-05
2.44891e-08
6.88238e-05
1.43583e-08
6.88632e-05
4.56882e-09
6.89202e-05
-7.30515e-10
6.89369e-05
1.28191e-08
6.89814e-05
5.56596e-09
6.9051e-05
-1.28889e-08
6.90787e-05
6.93769e-09
6.91093e-05
1.44586e-08
6.91396e-05
1.13156e-09
6.92537e-05
-8.88005e-09
6.94714e-05
-1.81537e-08
6.98692e-05
-1.77889e-08
7.05532e-05
-2.63135e-08
7.17471e-05
-3.25506e-08
7.3961e-05
-4.26144e-08
7.76755e-05
-7.82873e-08
8.67657e-05
-7.04678e-08
-3.54941e-07
0.000103209
6.88682e-05
1.49344e-08
3.45418e-09
6.88533e-05
1.93871e-08
-2.47966e-09
6.886e-05
2.8619e-08
-3.75192e-08
6.88703e-05
3.58868e-08
-5.3671e-08
6.88796e-05
3.48294e-08
-6.25425e-08
6.88709e-05
4.76912e-08
-5.71717e-08
6.88789e-05
4.02651e-08
-7.2619e-08
6.89217e-05
2.0088e-08
-9.28661e-08
6.89347e-05
3.015e-08
-7.37132e-08
6.89399e-05
2.97636e-08
-6.56901e-08
6.89444e-05
3.90262e-08
-6.96756e-08
6.89212e-05
5.18884e-08
-6.2045e-08
6.89265e-05
3.51724e-08
-7.09399e-08
6.89508e-05
3.6353e-08
-7.21448e-08
6.89527e-05
4.82834e-08
-6.77151e-08
6.89184e-05
4.3499e-08
-4.14391e-08
6.88517e-05
4.33587e-08
-2.16902e-08
6.88111e-05
5.71161e-08
-5.32734e-08
6.87985e-05
3.73532e-08
-6.55003e-08
6.8817e-05
1.63353e-08
-6.25424e-08
6.88528e-05
2.51574e-08
-7.34383e-08
6.88642e-05
3.27879e-08
-6.82105e-08
6.88699e-05
2.74536e-08
-7.41967e-08
6.88804e-05
2.09104e-08
-7.16897e-08
6.88921e-05
3.06605e-08
-7.53398e-08
6.89068e-05
3.55988e-08
-7.26277e-08
6.89336e-05
2.28878e-08
-5.97171e-08
6.89519e-05
2.47115e-08
-5.49805e-08
6.89415e-05
2.81811e-08
-3.19939e-08
6.89128e-05
2.45049e-08
-3.12402e-09
6.89132e-05
9.1878e-09
-3.33788e-09
6.89343e-05
9.24448e-09
-6.80521e-09
6.89445e-05
2.01371e-08
-1.53393e-08
6.8942e-05
2.30264e-08
-2.35385e-08
6.89391e-05
2.33099e-08
-2.54229e-08
6.89507e-05
1.43203e-08
-1.84146e-08
6.89547e-05
2.72151e-08
-2.00219e-08
6.89595e-05
3.96714e-08
-3.25122e-08
6.89502e-05
3.74512e-08
-2.43751e-08
6.88993e-05
6.79077e-08
-1.94223e-08
6.88402e-05
8.09057e-08
-2.08429e-08
6.87199e-05
1.7563e-07
-5.18334e-08
6.85164e-05
2.09955e-07
-9.79137e-09
6.80503e-05
4.45583e-07
-3.85159e-08
6.73741e-05
5.77865e-07
5.23967e-08
6.61342e-05
1.21284e-06
-6.03871e-08
6.4163e-05
1.86429e-06
4.49452e-08
6.10172e-05
3.27832e-06
-2.3462e-07
5.5685e-05
5.42116e-06
-2.05904e-07
9.19887e-06
-5.72877e-07
4.68547e-05
7.08706e-05
-7.20042e-09
-1.39868e-09
7.09025e-05
5.49301e-09
-6.90518e-09
7.09493e-05
1.2935e-08
-2.99299e-08
7.10085e-05
5.68256e-09
-4.94063e-08
7.10342e-05
1.22806e-08
-4.34173e-08
7.1098e-05
2.07352e-08
-4.64818e-08
7.11862e-05
1.25903e-08
-4.83937e-08
7.12356e-05
7.87395e-09
-4.82383e-08
7.12794e-05
1.37117e-08
-4.69793e-08
7.13051e-05
1.13947e-08
-1.96361e-08
7.13685e-05
-9.31608e-09
-2.42592e-08
7.14658e-05
-1.15164e-08
-3.52096e-08
7.14891e-05
2.46484e-08
-2.66205e-08
7.1545e-05
8.36554e-09
-3.40469e-08
7.1626e-05
8.32029e-10
-3.71093e-08
7.16245e-05
3.19881e-08
-1.98973e-08
7.16065e-05
4.46747e-08
-1.77602e-08
7.16472e-05
3.39369e-08
-4.46401e-08
7.17005e-05
1.20916e-08
-4.97741e-08
7.16898e-05
2.38835e-08
-3.75009e-08
7.17376e-05
2.99552e-09
-5.05012e-08
7.18444e-05
-1.58845e-08
-5.60393e-08
7.19135e-05
-4.67893e-09
-5.30268e-08
7.19155e-05
2.22066e-08
-4.37372e-08
7.19375e-05
2.69342e-08
-3.89853e-08
7.1993e-05
1.79857e-08
-3.90469e-08
7.20033e-05
2.70394e-08
-2.49839e-08
7.20528e-05
3.73087e-09
-2.78871e-08
7.21249e-05
-1.6105e-09
-2.35581e-08
7.21324e-05
1.47243e-08
-3.06547e-09
7.2117e-05
1.16019e-08
-1.08933e-08
7.21654e-05
-7.59369e-09
-1.45454e-08
7.22366e-05
-1.85946e-08
-1.69912e-08
7.23164e-05
-1.64717e-08
-4.04e-08
7.24144e-05
-2.81901e-08
-3.77162e-08
7.24338e-05
-9.07525e-09
-1.84117e-09
7.2479e-05
4.64239e-09
-1.37483e-08
7.25311e-05
3.00948e-08
-3.05059e-08
7.25718e-05
4.55915e-08
-3.64551e-08
7.26101e-05
5.8322e-08
-3.22963e-08
7.26226e-05
1.15821e-07
-6.90704e-08
7.25929e-05
2.24621e-07
-2.78271e-08
7.24782e-05
3.69501e-07
-7.56178e-08
7.22464e-05
6.23549e-07
4.15083e-08
7.17592e-05
1.09547e-06
-9.80664e-08
7.10423e-05
1.87296e-06
5.9828e-08
6.97303e-05
3.24994e-06
-1.27443e-07
6.75671e-05
5.45447e-06
-4.42205e-08
6.45484e-05
8.65636e-06
-3.02457e-07
1.40018e-05
-4.11837e-07
5.99401e-05