/*--------------------------------*- C++ -*----------------------------------*\
| =========                 |                                                 |
| \\      /  F ield         | OpenFOAM: The Open Source CFD Toolbox           |
|  \\    /   O peration     | Version:  2.1.x                                 |
|   \\  /    A nd           | Web:      www.OpenFOAM.org                      |
|    \\/     M anipulation  |                                                 |
\*---------------------------------------------------------------------------*/
FoamFile
{
    version     2.0;
    format      ascii;
    class       volVectorField;
    location    "0.2";
    object      U;
}
// * * * * * * * * * * * * * * * * * * * * * * * * * * * * * * * * * * * * * //

dimensions      [0 1 -1 0 0 0 0];

internalField   nonuniform List<vector> 
3875
(
(4.17992 -0.000186643 0.000357544)
(4.18724 0.000322765 0.000577412)
(4.18559 0.001158 0.000763255)
(4.17762 0.00207498 0.00154133)
(4.16912 0.00225266 0.00251425)
(4.16088 0.0028335 0.00417963)
(4.15279 0.00372996 0.0049643)
(4.14392 0.0045686 0.00474568)
(4.13426 0.005127 0.00412714)
(4.12432 0.00519361 0.00522313)
(4.11473 0.00461623 0.00529769)
(4.10578 0.00439102 0.00515038)
(4.0973 0.00448908 0.00418436)
(4.08887 0.00505725 0.00502564)
(4.07904 0.00432413 0.0055756)
(4.07053 0.00559922 0.00578715)
(4.05902 0.00587018 0.00481118)
(4.05278 0.00453371 0.00505922)
(4.03967 0.0044729 0.00596748)
(4.03376 0.00414265 0.00520796)
(4.02736 0.00390629 0.0043854)
(4.021 0.00394174 0.00325718)
(4.01508 0.00312526 0.00202527)
(4.01599 0.00216709 0.00182585)
(4.01157 0.00217002 0.00199524)
(4.00659 0.00209568 0.00219584)
(4.00703 0.00176081 0.00170191)
(4.00655 0.00172657 0.00186511)
(4.00506 0.00180373 0.00201536)
(4.00021 0.00255538 0.00226089)
(3.99739 0.00239754 0.00267829)
(3.99604 0.00235482 0.00278048)
(3.99184 0.0023677 0.00259103)
(3.98582 0.00319 0.00390043)
(3.97866 0.00303813 0.00404898)
(3.97972 0.00237577 0.00335742)
(3.97366 0.00334961 0.00286496)
(3.96734 0.00357049 0.00389356)
(3.96468 0.00531247 0.00178624)
(3.95712 0.00333711 0.0046224)
(3.94974 0.00692657 0.00133796)
(3.93778 0.0037993 0.00635852)
(3.92379 0.0108752 0.00202837)
(3.89851 0.00795246 0.00967291)
(3.86707 0.0286737 -0.000611239)
(3.79889 0.0279775 0.00994026)
(3.70904 0.0800834 -0.00565794)
(3.54372 0.089968 0.0103114)
(3.28267 0.213792 -0.00129005)
(2.92308 0.249789 0.0252464)
(4.31187 0.000381306 0.000523258)
(4.31469 0.000501526 0.000392663)
(4.31773 0.00190419 0.000811916)
(4.31622 0.00239948 0.00122995)
(4.31366 0.00313456 0.00239287)
(4.30942 0.00284603 0.00279013)
(4.31129 0.00231672 0.00290003)
(4.31115 0.00290751 0.00308416)
(4.31699 0.00374869 0.00167297)
(4.31847 0.00417003 0.0019895)
(4.31843 0.00404356 0.00282203)
(4.31691 0.00333551 0.00324471)
(4.31542 0.00312059 0.00323497)
(4.32045 0.00305734 0.00260555)
(4.32087 0.00300391 0.00319779)
(4.31754 0.00337349 0.00350088)
(4.32306 0.00428771 0.00343092)
(4.32 0.00452512 0.00381131)
(4.31587 0.00385496 0.00429988)
(4.31904 0.00267903 0.00271591)
(4.3207 0.00216444 0.00262589)
(4.31815 0.00173878 0.00283326)
(4.31966 0.00111411 0.00189604)
(4.32013 0.000866279 0.00210471)
(4.31865 0.00069375 0.00247857)
(4.31944 -0.000196052 0.00190775)
(4.31977 -0.000942774 0.00172145)
(4.32145 -0.00113191 0.0021857)
(4.31652 -0.000474474 0.00233482)
(4.32084 0.000211662 0.00229767)
(4.32171 -0.00021845 0.00227452)
(4.32138 -2.41328e-05 0.00227233)
(4.32204 0.000450757 0.00239601)
(4.32241 0.000282497 0.00307914)
(4.31702 -0.000296798 0.00373212)
(4.32029 -0.00129769 0.00274142)
(4.31597 -0.00125262 0.00250899)
(4.32296 0.000229245 0.00213701)
(4.32006 0.000485226 0.00265947)
(4.32127 0.00394439 0.00198532)
(4.31768 0.00690498 0.0056714)
(4.30846 0.0111138 0.00143495)
(4.29137 0.0197734 0.0107067)
(4.26881 0.0311204 0.000504089)
(4.23954 0.0580589 0.0128078)
(4.19281 0.0930488 -0.00111437)
(4.12009 0.171498 0.0112507)
(4.01182 0.275947 -0.00104)
(3.81605 0.480961 0.0157821)
(3.57156 0.740812 0.00997154)
(4.3036 0.000155851 2.39593e-05)
(4.31432 0.000311783 0.000412711)
(4.31444 0.000464679 0.00119473)
(4.30667 0.000333615 0.00152186)
(4.30924 0.00078821 0.00146545)
(4.3083 0.000152252 0.00276101)
(4.30368 -0.000754196 0.00356238)
(4.30154 -0.00168471 0.00309198)
(4.3025 -0.00136994 0.00296653)
(4.30134 -0.000401207 0.00229428)
(4.3091 -0.000299261 0.00124933)
(4.30965 -0.000452479 0.00198603)
(4.31139 -0.000821968 0.00262092)
(4.31175 -0.000555609 0.00231451)
(4.31245 0.000466074 0.00214491)
(4.31068 0.000305833 0.0030423)
(4.30866 -0.000594242 0.00317567)
(4.31533 0.000273536 0.00295092)
(4.31488 0.000133214 0.0037383)
(4.31526 -0.000549397 0.00426381)
(4.31529 -0.000482677 0.00437682)
(4.31194 -0.000164801 0.00424022)
(4.30901 -0.000464796 0.0036046)
(4.31447 -0.00162863 0.00331637)
(4.31523 -0.000743123 0.00331527)
(4.31233 -7.14404e-06 0.00289175)
(4.31138 -0.000402082 0.00275078)
(4.31074 -0.000592827 0.00275269)
(4.30636 -0.00102054 0.00263346)
(4.31033 -0.00223017 0.002349)
(4.31077 -0.00222194 0.00273809)
(4.30766 -0.00206952 0.00254141)
(4.31356 -0.00235192 0.00184482)
(4.31333 -0.00254617 0.00232354)
(4.3161 -0.00282607 0.00284572)
(4.31438 -0.00259589 0.00338356)
(4.3069 -0.00204644 0.0041565)
(4.30104 -0.00180855 0.00454266)
(4.29693 0.00196487 0.00377115)
(4.29398 0.0032927 0.00307522)
(4.29616 0.00840712 0.00314808)
(4.29336 0.0141395 0.00228731)
(4.29591 0.0305262 0.00278747)
(4.29902 0.0420314 0.00118029)
(4.29216 0.0822715 0.00300724)
(4.30218 0.123751 0.000746964)
(4.26962 0.225916 0.00355577)
(4.27246 0.37959 0.00305458)
(4.16871 0.64149 0.00673394)
(4.0557 1.12654 0.0144484)
(4.29882 -0.000389653 0.000112438)
(4.30224 -0.000637307 -2.48985e-05)
(4.30643 -0.00156189 0.00111238)
(4.30062 -0.0019459 0.00169043)
(4.30115 -0.00301882 0.00212166)
(4.30302 -0.00285687 0.00228034)
(4.30201 -0.00293585 0.00287835)
(4.303 -0.00348441 0.00351545)
(4.29674 -0.00425505 0.00341176)
(4.30202 -0.00509494 0.00241658)
(4.30221 -0.0050388 0.00248198)
(4.30303 -0.0045537 0.00296076)
(4.30309 -0.0043612 0.00352405)
(4.29911 -0.00379732 0.00329816)
(4.30458 -0.00270039 0.00297052)
(4.30547 -0.00290746 0.00336147)
(4.30447 -0.00371909 0.00315634)
(4.30516 -0.00400105 0.00307129)
(4.30543 -0.00381972 0.00330566)
(4.30505 -0.00365065 0.00343767)
(4.30085 -0.00371501 0.00301076)
(4.30551 -0.00364116 0.0019474)
(4.30557 -0.00428814 0.00253149)
(4.30239 -0.00489697 0.00305082)
(4.30082 -0.00473766 0.00213015)
(4.30814 -0.00404559 0.00138556)
(4.30942 -0.00381112 0.00192147)
(4.31108 -0.00368657 0.00265707)
(4.3122 -0.00420564 0.00286487)
(4.31097 -0.00540722 0.00258034)
(4.31125 -0.00552029 0.00296799)
(4.31009 -0.0055955 0.00352278)
(4.30991 -0.00571326 0.00371454)
(4.30481 -0.00547016 0.00408028)
(4.30005 -0.00476081 0.0045864)
(4.29386 -0.00366294 0.00473141)
(4.29662 -0.00170194 0.00471398)
(4.29078 -0.00101002 0.0039687)
(4.29586 0.00146305 0.0025599)
(4.2967 0.00313204 0.00227035)
(4.2922 0.00522811 0.00213475)
(4.30068 0.0134839 0.0018793)
(4.30044 0.0174202 0.00183548)
(4.31975 0.0398313 0.00163368)
(4.32912 0.0527464 0.00180749)
(4.37805 0.120912 0.00121664)
(4.41973 0.167818 0.00102256)
(4.52793 0.375557 0.000575097)
(4.66699 0.549672 0.00346534)
(4.60324 1.33793 1.60487e-05)
(4.18529 1.29085e-06 -0.000185956)
(4.193 -0.000421129 0.000249037)
(4.19132 -0.00098285 0.001065)
(4.1825 -0.00191551 0.00200168)
(4.17332 -0.00281187 0.00289609)
(4.16464 -0.00319168 0.00358832)
(4.15794 -0.0028368 0.00445091)
(4.14898 -0.00286721 0.00571471)
(4.14057 -0.00451319 0.00464893)
(4.13013 -0.00582971 0.00326917)
(4.12163 -0.00572408 0.00424391)
(4.11009 -0.00546893 0.00553069)
(4.10093 -0.0056052 0.00522853)
(4.09056 -0.00588665 0.00506495)
(4.0821 -0.00635257 0.0049245)
(4.07083 -0.00526936 0.0053895)
(4.06332 -0.00503191 0.00528453)
(4.05311 -0.00540156 0.00453278)
(4.04589 -0.00508265 0.0046244)
(4.03634 -0.00450808 0.00564806)
(4.02833 -0.00497089 0.00505196)
(4.01947 -0.0058696 0.00522651)
(4.00972 -0.00577862 0.00571415)
(4.0011 -0.00546708 0.00563923)
(3.99018 -0.00643639 0.00517355)
(3.98045 -0.0065889 0.0055667)
(3.96825 -0.00621659 0.00642974)
(3.95896 -0.00590004 0.00602437)
(3.94805 -0.00644456 0.00588711)
(3.93795 -0.00605321 0.00474251)
(3.92775 -0.00634519 0.00425921)
(3.9173 -0.00669132 0.00489605)
(3.90524 -0.00677392 0.00591045)
(3.8936 -0.00636997 0.00717632)
(3.88139 -0.00609103 0.00763009)
(3.87087 -0.00627472 0.00753209)
(3.85763 -0.00622202 0.00770898)
(3.84902 -0.00539995 0.00744634)
(3.83983 -0.00552614 0.00745035)
(3.8328 -0.00230816 0.00501722)
(3.83896 0.000649961 0.0025835)
(3.83844 0.00164219 0.00215299)
(3.85791 0.00909212 0.00163381)
(3.86798 0.00978164 0.00114955)
(3.92488 0.0333409 0.00040248)
(3.96878 0.0296252 0.00013361)
(4.12593 0.109112 -0.00200588)
(4.31081 0.080297 -0.0010172)
(4.70987 0.420435 -0.00673148)
(5.54538 0.290856 0.00645354)
(4.31609 5.12781e-07 -0.000186928)
(4.32663 0.000418848 0.000496975)
(4.32276 0.000843728 0.00101786)
(4.31514 0.0017071 0.00268037)
(4.31862 0.00227517 0.00298792)
(4.316 0.00229513 0.00307787)
(4.32213 0.00199344 0.00420509)
(4.32242 0.00235861 0.00445281)
(4.32094 0.00225209 0.00432304)
(4.32055 0.00171966 0.00423649)
(4.32716 0.00174969 0.00369426)
(4.32837 0.00224169 0.00381414)
(4.32829 0.00287483 0.00436812)
(4.32434 0.00261581 0.00434594)
(4.33102 0.0023915 0.00372018)
(4.33054 0.00324859 0.00368033)
(4.33038 0.00378679 0.0035575)
(4.32979 0.00353849 0.00386828)
(4.33114 0.00312482 0.00386512)
(4.33176 0.00257632 0.00306502)
(4.33316 0.00265865 0.00250744)
(4.32906 0.00303882 0.00263619)
(4.3239 0.00244459 0.00234038)
(4.32569 0.00212142 0.000965424)
(4.32411 0.00232571 0.00073352)
(4.32458 0.00179427 0.000155957)
(4.32546 0.00157471 -0.000655245)
(4.32587 0.00182858 -0.00038072)
(4.32608 0.00200111 0.000581602)
(4.32521 0.0023505 0.000807766)
(4.32638 0.00211306 0.000762646)
(4.32695 0.00184801 0.00118974)
(4.32634 0.00189797 0.00216365)
(4.32777 0.00233309 0.00324522)
(4.32774 0.00265542 0.00355161)
(4.32844 0.00224451 0.00295047)
(4.32923 0.00260626 0.00297525)
(4.32463 0.00307244 0.00273387)
(4.32803 0.00350768 0.00209908)
(4.32264 0.00514513 0.00252612)
(4.31387 0.00545312 0.00255801)
(4.30706 0.00851324 0.00196385)
(4.29948 0.00875033 0.000524175)
(4.28593 0.019101 0.00107361)
(4.25685 0.014758 0.000598046)
(4.20821 0.045067 0.0018293)
(4.11586 0.054188 0.00204287)
(3.98408 0.109469 0.00400945)
(3.73288 0.166811 0.0112548)
(3.45149 0.266778 0.0170039)
(4.42892 4.81103e-05 0.000354049)
(4.44101 0.000992004 0.00090493)
(4.43408 0.00190614 0.00139201)
(4.43868 0.00225617 0.00294582)
(4.43479 0.00164021 0.00299425)
(4.44558 0.00208375 0.0029574)
(4.44529 0.00211991 0.00170009)
(4.45563 0.00207898 0.000736401)
(4.45775 0.00207694 0.00087239)
(4.45375 0.00152074 0.00163196)
(4.46359 -5.78729e-05 0.00265515)
(4.45963 0.000575939 0.00264632)
(4.46846 0.00216233 0.00184804)
(4.46557 0.00120255 0.00145169)
(4.46973 -0.000170336 0.00212188)
(4.47141 0.0016086 0.00160764)
(4.4824 0.0024511 0.000908547)
(4.4824 0.00246012 0.00153307)
(4.49437 0.00241298 0.0010061)
(4.49758 0.002408 0.00106865)
(4.49507 0.00255904 0.00139646)
(4.50503 0.00239792 0.000917521)
(4.50712 0.00236877 0.000859018)
(4.50304 0.00242129 0.000964546)
(4.5106 0.00148865 0.000583084)
(4.5123 0.000482089 0.000399055)
(4.50857 0.000121391 0.000148646)
(4.51729 -0.000392663 0.000813514)
(4.51276 -6.99607e-05 0.000634144)
(4.51985 0.000277858 0.000713371)
(4.52177 0.000373257 0.00132774)
(4.52236 0.000588458 0.00161293)
(4.52597 0.000105704 0.00204229)
(4.52338 -0.000242176 0.00319211)
(4.53347 -0.000787345 0.00330719)
(4.53577 -0.000357386 0.0035344)
(4.52986 0.000363749 0.00356542)
(4.53685 0.00188628 0.00201843)
(4.53296 0.00172064 0.0014225)
(4.5362 0.00477494 0.00167532)
(4.53692 0.00671778 0.00251172)
(4.54398 0.0133563 0.00167503)
(4.54067 0.0177819 0.00293504)
(4.53965 0.0351885 0.00253506)
(4.51726 0.048194 0.00519705)
(4.49316 0.0931304 0.00281976)
(4.42411 0.154429 0.00467632)
(4.34163 0.26587 0.00576657)
(4.15868 0.452822 0.00791865)
(3.97944 0.681753 0.0207339)
(4.4359 -0.000247912 -0.000163121)
(4.44319 8.21048e-05 -0.000145911)
(4.4506 0.000656821 0.00156297)
(4.44983 0.000765225 0.00243837)
(4.4472 0.000337227 0.00245563)
(4.44702 -0.00125897 0.00262616)
(4.45742 -0.0016553 0.00347434)
(4.46402 -0.000668231 0.00238389)
(4.46575 0.000447243 0.00182103)
(4.46992 0.000400614 0.00169477)
(4.47328 -0.000102106 0.00133402)
(4.46894 -9.82942e-05 0.00177219)
(4.47721 0.000577249 0.00238105)
(4.47785 0.000882865 0.00231313)
(4.47384 0.000995819 0.00180123)
(4.47145 0.000930241 0.00158748)
(4.4815 -0.000149817 0.00183149)
(4.47917 -0.000350104 0.00179533)
(4.48598 -0.000784293 0.00177009)
(4.48964 -0.00029584 0.00235278)
(4.50033 -0.000154084 0.00353158)
(4.50159 -0.00052497 0.00347869)
(4.50816 0.00036212 0.00197418)
(4.50977 0.00100628 0.00204416)
(4.51978 -0.000293878 0.00253616)
(4.51755 0.000260444 0.00230837)
(4.52092 0.000722525 0.00230465)
(4.51959 0.000385766 0.00249646)
(4.51819 0.000648383 0.00160294)
(4.52522 -0.000838877 0.00068784)
(4.52351 -0.000878591 0.00161985)
(4.5337 9.16399e-05 0.00148629)
(4.52978 -0.000219677 0.000867662)
(4.5357 -0.000613726 0.00218537)
(4.53436 -0.000883515 0.00331022)
(4.5361 -2.81425e-05 0.00364072)
(4.53865 0.00095287 0.00436693)
(4.5412 0.000999423 0.00457408)
(4.54501 0.00276143 0.00348109)
(4.54411 0.00310332 0.00304212)
(4.55008 0.0072965 0.00167762)
(4.54886 0.0107376 0.00124057)
(4.55666 0.025344 -0.000490402)
(4.56087 0.0353687 0.000975621)
(4.55836 0.0739419 -0.00272046)
(4.571 0.113471 0.00441131)
(4.54249 0.214088 -0.00674)
(4.55449 0.357438 0.0122215)
(4.46769 0.595723 -0.00617302)
(4.38091 1.03605 0.0274795)
(4.42798 -0.000581016 0.000424382)
(4.43348 -0.00104608 0.000818217)
(4.43406 -0.00120421 0.00145853)
(4.4359 -0.00152991 0.00207394)
(4.44155 -0.00138019 0.00222179)
(4.44363 -0.001716 0.00225786)
(4.44194 -0.00235725 0.00201289)
(4.44679 -0.00243704 0.0019642)
(4.45193 -0.00261207 0.00296393)
(4.45477 -0.00347767 0.0023111)
(4.45795 -0.00184756 0.00116077)
(4.463 -0.000632975 0.00133881)
(4.46451 -0.00246803 0.00279497)
(4.47613 -0.00138824 0.00294075)
(4.47554 -0.00020733 0.00229235)
(4.48754 -0.000888023 0.00166918)
(4.49073 -0.00140358 0.00192513)
(4.4885 -0.0019707 0.00185838)
(4.49921 -0.00213487 0.00165684)
(4.49519 -0.00195627 0.00218732)
(4.50341 -0.0023248 0.0015686)
(4.5056 -0.00224611 0.00159621)
(4.50213 -0.00211938 0.00215271)
(4.51156 -0.00299969 0.00211027)
(4.51339 -0.00271205 0.00168801)
(4.512 -0.00101794 0.00149194)
(4.51316 -0.000288656 0.00129564)
(4.51736 -0.000424336 0.000873617)
(4.52325 -0.0015824 0.00168296)
(4.52518 -0.00297471 0.00213436)
(4.52304 -0.00371426 0.00177275)
(4.53371 -0.00332421 0.00221643)
(4.53666 -0.00266202 0.00301042)
(4.53452 -0.00265337 0.00390376)
(4.5468 -0.00167078 0.00409575)
(4.54306 -0.00133612 0.00453254)
(4.55388 -0.00108388 0.00441764)
(4.55552 -0.000248588 0.00389176)
(4.55769 0.00123921 0.00304238)
(4.56018 0.00236776 0.00245492)
(4.55671 0.00352349 0.00158073)
(4.57014 0.0114385 0.000261105)
(4.57011 0.0146514 0.00015072)
(4.59253 0.0361657 0.000182696)
(4.60208 0.0467761 -9.83846e-05)
(4.65188 0.113862 0.00018413)
(4.69418 0.153103 -0.00202429)
(4.8008 0.358402 0.00100963)
(4.94901 0.522909 -0.00227957)
(4.88366 1.2287 0.00489268)
(4.30413 -0.000291314 4.32934e-05)
(4.30743 -0.0002622 4.75575e-05)
(4.31116 -0.000855118 0.00164496)
(4.31011 -0.00155494 0.00264202)
(4.30504 -0.00169209 0.00342881)
(4.31127 -0.00141519 0.00361038)
(4.30807 -0.00174657 0.00343618)
(4.31445 -0.00236444 0.00371776)
(4.31265 -0.00325348 0.00373957)
(4.31087 -0.00395911 0.00324613)
(4.30629 -0.00340617 0.00333002)
(4.31198 -0.00302936 0.00394137)
(4.31196 -0.00374555 0.00376583)
(4.30702 -0.0037769 0.00356009)
(4.31337 -0.00348043 0.00353177)
(4.30921 -0.00382894 0.00358861)
(4.31219 -0.00315654 0.00378713)
(4.31247 -0.00337138 0.00320494)
(4.30856 -0.00348506 0.00270647)
(4.31407 -0.00274801 0.00284753)
(4.31405 -0.00283149 0.002882)
(4.31514 -0.00278377 0.0029119)
(4.3164 -0.00290916 0.00340239)
(4.31581 -0.00350277 0.00405791)
(4.31339 -0.0034496 0.00414278)
(4.31087 -0.00247762 0.00397544)
(4.31714 -0.00285925 0.00421377)
(4.31266 -0.0033479 0.00437144)
(4.31607 -0.00386613 0.00475011)
(4.31162 -0.00396867 0.00486051)
(4.30892 -0.00456161 0.00445334)
(4.30493 -0.0051068 0.00435259)
(4.30541 -0.00373175 0.00536889)
(4.30581 -0.00380703 0.00613542)
(4.30461 -0.00408407 0.00651881)
(4.30482 -0.00392241 0.00617267)
(4.30564 -0.00379814 0.00602595)
(4.30112 -0.00286765 0.00574151)
(4.30805 -0.00106241 0.00378861)
(4.31003 -0.000552718 0.0022973)
(4.31157 0.000243453 0.000611431)
(4.31335 0.0018008 -0.000238585)
(4.33351 0.0071211 -0.00059188)
(4.33946 0.00792167 -0.000898985)
(4.39145 0.0278824 -0.00219232)
(4.42478 0.0256792 -0.00222702)
(4.56848 0.0968759 -0.0055927)
(4.72136 0.0636814 -0.00371476)
(5.09939 0.388317 -0.0132661)
(5.81268 0.23156 0.00643779)
(4.29985 0.000368314 -0.000447902)
(4.30323 0.000468789 -0.000559158)
(4.30631 0.00145 0.00122812)
(4.30302 0.00212021 0.00111596)
(4.30001 0.00319779 -6.74595e-05)
(4.29658 0.00280074 -0.000257833)
(4.2959 0.00108841 -0.000418294)
(4.30342 0.00100834 0.000216814)
(4.30369 0.0017574 8.42708e-05)
(4.30549 0.00225446 -0.000519013)
(4.30622 0.00287558 -0.000611062)
(4.30288 0.0030582 -3.86546e-05)
(4.30911 0.00230186 0.000832779)
(4.3107 0.00263284 0.00060534)
(4.3105 0.00338407 2.47628e-05)
(4.30705 0.00312407 -0.000173829)
(4.31326 0.00283608 -0.00121276)
(4.30987 0.00286983 -0.00137089)
(4.31534 0.00217245 -0.00141713)
(4.31668 0.00271886 -0.00123703)
(4.31437 0.00351194 -0.00068238)
(4.31218 0.00272045 0.000482159)
(4.31903 0.00211887 -3.23613e-05)
(4.31935 0.00263764 -0.000465417)
(4.31904 0.00287329 -0.000512224)
(4.31901 0.0027071 -0.000276846)
(4.31759 0.00304346 -0.000294527)
(4.31179 0.00296487 0.000223205)
(4.31537 0.00193477 0.000526095)
(4.3168 0.00251193 -0.000101271)
(4.31038 0.00338574 -8.98682e-05)
(4.31138 0.00260213 0.000875814)
(4.30914 0.00272875 0.000616064)
(4.30779 0.00292739 0.000479973)
(4.31208 0.00211449 0.000685696)
(4.31496 0.00292337 0.000825288)
(4.30925 0.00341354 0.00114816)
(4.3126 0.00377894 0.00112156)
(4.30547 0.00295223 0.000333766)
(4.30676 0.00470861 0.00103652)
(4.30463 0.00504449 0.000857373)
(4.29589 0.00894741 7.86934e-06)
(4.27994 0.00521995 -0.00168349)
(4.26238 0.0199792 -0.0035285)
(4.22898 0.0158104 -0.00415607)
(4.17924 0.0466015 -0.00431398)
(4.08921 0.0531266 -0.00339103)
(3.95852 0.110314 -0.00272719)
(3.71089 0.164429 -0.00219902)
(3.43012 0.26778 -0.0035097)
(4.43296 0.00038128 0.000107835)
(4.43739 0.00077893 0.000276264)
(4.44233 0.00162529 0.000914537)
(4.44062 0.00265903 0.000982063)
(4.45078 0.00333518 -0.000143701)
(4.45364 0.0029659 -3.89031e-05)
(4.45635 0.00167547 2.36023e-05)
(4.45142 0.0010871 -0.000464879)
(4.4584 0.00234635 -0.000119074)
(4.45932 0.00249804 0.000123737)
(4.46098 0.00171824 0.000340227)
(4.47199 0.0010519 0.00076603)
(4.47244 0.00108554 0.000125004)
(4.477 0.00156894 0.000430788)
(4.47795 0.00153236 0.000918184)
(4.48876 0.00126493 -0.0011642)
(4.49021 0.00164897 -0.00173522)
(4.49336 0.00182211 -0.00165651)
(4.49574 0.00140074 -0.00169596)
(4.49304 0.00165973 -0.00148032)
(4.50354 0.00235564 -0.00035887)
(4.50599 0.00167928 -9.58621e-06)
(4.50253 0.00118587 0.000231704)
(4.51216 0.00154475 -0.000782874)
(4.51312 0.00155298 -0.000757117)
(4.51591 0.0011178 0.000100661)
(4.51774 0.00132945 -8.43179e-05)
(4.51916 0.00110258 -8.44268e-05)
(4.52009 0.000139334 0.000295686)
(4.5158 0.000280774 0.000194992)
(4.52505 0.000850238 -0.000546949)
(4.52718 0.000208901 0.000331658)
(4.52429 -0.000537644 0.00110382)
(4.53351 -0.000978988 0.0011128)
(4.53422 -0.000445091 0.000963574)
(4.53514 -3.93389e-05 0.00117109)
(4.54506 0.000403041 0.00180251)
(4.5487 0.00188871 0.00141985)
(4.54962 0.0035101 0.0011504)
(4.54534 0.00414489 0.000554286)
(4.55225 0.00790053 -0.000681065)
(4.54775 0.011136 -0.000749079)
(4.54021 0.0177621 -0.00116018)
(4.53726 0.034372 -0.00145748)
(4.51695 0.052295 -0.00240475)
(4.49271 0.0920391 -0.000978318)
(4.42968 0.155692 -0.000425403)
(4.34483 0.261635 -0.000429469)
(4.1674 0.452351 0.000462324)
(3.98127 0.67772 -0.00565204)
(4.43811 0.000222414 -0.000174988)
(4.44275 0.000541484 -0.000279354)
(4.44709 0.000262673 0.000322911)
(4.44501 -0.000102425 0.000579232)
(4.45549 -0.000586199 0.000385744)
(4.45764 -0.000684752 0.000615885)
(4.46167 -0.000591007 0.000363615)
(4.46493 -0.000421715 -0.000179294)
(4.46347 -0.000451013 -6.85131e-05)
(4.47379 -0.000294355 -0.00031451)
(4.47698 -0.00130539 -1.62961e-05)
(4.47786 -0.00167049 0.00085605)
(4.47761 -0.000480307 0.00125743)
(4.48749 0.000241142 0.00182567)
(4.48912 0.00019428 0.0017151)
(4.48806 0.000221355 0.000464517)
(4.48693 0.000851858 -0.000146686)
(4.49597 0.000686754 0.000149293)
(4.49449 0.000539965 -0.000948685)
(4.50124 0.00112964 -0.0022675)
(4.50412 -0.000857126 -0.00129557)
(4.51434 -0.000454562 -0.000464469)
(4.51653 0.000376239 -0.000604509)
(4.51815 -0.000243695 -0.000837226)
(4.52749 -0.00012828 5.12698e-06)
(4.52967 0.000321552 0.00123082)
(4.52711 0.000487687 0.00196056)
(4.53655 0.000202254 0.00149078)
(4.53847 0.000611142 0.00104331)
(4.53417 0.000222178 0.000807979)
(4.54256 -0.00161727 0.000237577)
(4.54426 -0.000977629 0.000564241)
(4.54484 -0.000396631 0.00121813)
(4.54105 -0.00115463 0.00110396)
(4.54998 -0.00114374 0.00107517)
(4.55244 -0.000643312 0.00108567)
(4.54957 8.24359e-05 0.00127496)
(4.55678 0.00173582 0.00160924)
(4.55493 0.00275109 0.000730816)
(4.56621 0.00538648 -0.000402878)
(4.56789 0.00805237 -0.000456476)
(4.56897 0.0120395 -0.000511456)
(4.57042 0.0241844 -0.000823596)
(4.57292 0.035389 -0.00145265)
(4.56852 0.0713659 -0.0010268)
(4.58053 0.111278 -0.00223264)
(4.55217 0.208593 -0.000345703)
(4.56057 0.35272 -0.00465322)
(4.47926 0.593629 -0.000168275)
(4.38489 1.02246 -0.00966657)
(4.42989 -0.000173794 0.000193037)
(4.43757 -0.000398948 0.000200349)
(4.44398 -0.00115003 0.000617593)
(4.43869 -0.00213429 1.67899e-06)
(4.44769 -0.0023234 -0.000668413)
(4.44278 -0.00199455 0.00043124)
(4.44927 -0.00213582 0.00110406)
(4.44564 -0.00243645 -9.93161e-06)
(4.45379 -0.00261191 0.000160402)
(4.45858 -0.00348341 0.000135916)
(4.4607 -0.00303534 -0.000601663)
(4.45933 -0.00207544 -0.000426387)
(4.46544 -0.00299449 -0.000210279)
(4.46828 -0.00313531 -0.000207794)
(4.4788 -0.00149078 -9.91221e-05)
(4.48064 -0.0012401 -0.00021271)
(4.48219 -0.00181046 0.000246104)
(4.49256 -0.00216054 0.000475578)
(4.49154 -0.00239877 0.000173093)
(4.50294 -0.00274597 -0.000903485)
(4.50694 -0.00303443 -0.000853)
(4.50551 -0.00314972 7.12577e-05)
(4.51691 -0.00234758 0.000636944)
(4.51938 -0.00249228 0.000639635)
(4.51638 -0.00232063 0.000933111)
(4.52592 -0.00132921 0.000832552)
(4.52832 -0.00141427 0.000340756)
(4.52795 -0.00182976 0.000672848)
(4.52654 -0.0011445 0.00142458)
(4.53521 -0.00202027 0.00104853)
(4.53776 -0.00293078 0.000206595)
(4.53425 -0.00217248 -4.4348e-05)
(4.54422 -0.000798536 0.00156347)
(4.54704 -0.000827637 0.00156549)
(4.54668 -0.0011764 0.00138791)
(4.5488 -0.00115273 0.00163193)
(4.55411 -0.000493798 0.00117734)
(4.55681 0.000321779 0.00133887)
(4.56197 0.00143918 0.000949088)
(4.56498 0.00234664 5.22286e-05)
(4.57335 0.00433883 -0.00030401)
(4.58167 0.0109034 -0.00053381)
(4.58075 0.0148283 -0.000530121)
(4.60239 0.037446 -0.000712484)
(4.60983 0.0473651 -0.00100696)
(4.65927 0.114502 -0.00192025)
(4.70019 0.152885 -0.00226658)
(4.80588 0.35651 -0.00327921)
(4.95697 0.519192 -0.004221)
(4.89061 1.22764 -0.00478334)
(4.30274 -0.000389359 -8.81478e-05)
(4.30722 -0.000587787 -7.46846e-05)
(4.31122 -0.00132601 -0.000592468)
(4.30323 -0.00196343 -0.000510577)
(4.30531 -0.00188351 -0.000287459)
(4.30665 -0.00173853 -0.000241794)
(4.30755 -0.00175901 1.48844e-05)
(4.30691 -0.00204449 0.000240936)
(4.30688 -0.00289087 0.000701582)
(4.30569 -0.00357216 0.000948897)
(4.29999 -0.00321479 0.000531729)
(4.30534 -0.00261606 -0.000133181)
(4.30541 -0.00361046 6.27937e-05)
(4.30105 -0.00417231 -0.000187531)
(4.30216 -0.00376397 -0.000217908)
(4.30026 -0.00313099 -0.000354367)
(4.30614 -0.00341338 -0.000713248)
(4.30705 -0.00396118 -0.000584089)
(4.30633 -0.00412766 -0.00103257)
(4.30708 -0.00406714 -0.00136044)
(4.30714 -0.00378603 -0.00122098)
(4.3086 -0.00397344 -0.000691667)
(4.30401 -0.00420474 -0.000218367)
(4.30797 -0.00348895 0.00032778)
(4.30915 -0.00364155 0.00118192)
(4.30465 -0.00405932 0.00135756)
(4.30526 -0.00325762 0.00112568)
(4.30625 -0.00332457 0.00154466)
(4.30521 -0.00386301 0.00187699)
(4.30588 -0.00403222 0.00208085)
(4.30577 -0.00378575 0.00225893)
(4.30194 -0.00367296 0.0024346)
(4.302 -0.00407416 0.0020612)
(4.30079 -0.00335384 0.00215722)
(4.30712 -0.0021451 0.00211868)
(4.30911 -0.00268032 0.00219883)
(4.30704 -0.00301663 0.00233945)
(4.31523 -0.00188683 0.00100929)
(4.31682 -0.0015624 0.000816558)
(4.31862 -0.00115445 0.000969399)
(4.32149 -0.000234601 8.15469e-05)
(4.32033 0.00170836 -0.000697921)
(4.34033 0.00790671 -0.000959025)
(4.34677 0.00895181 -0.00100257)
(4.39849 0.0283597 -0.0018207)
(4.43211 0.0258975 -0.0020904)
(4.57405 0.0963569 -0.00352314)
(4.72851 0.0616388 -0.00461398)
(5.09469 0.386122 -0.0067821)
(5.81899 0.226656 -0.00987281)
(4.30111 0.000542294 0.00024203)
(4.30513 0.000610498 0.000662083)
(4.3075 0.00129165 -0.00130352)
(4.30494 0.00170832 -0.0024219)
(4.30423 0.00204114 -0.00308895)
(4.30513 0.00262991 -0.00309951)
(4.30234 0.0022803 -0.00357501)
(4.3076 0.00138032 -0.00464538)
(4.30865 0.00178904 -0.00438361)
(4.30792 0.00217473 -0.00393835)
(4.30912 0.00273738 -0.00370656)
(4.30974 0.00332198 -0.0037811)
(4.305 0.00291074 -0.00397748)
(4.30992 0.00273581 -0.00345785)
(4.30977 0.00324596 -0.00306074)
(4.30936 0.00322154 -0.00266601)
(4.30606 0.00280014 -0.00250496)
(4.29946 0.00331265 -0.0028455)
(4.302 0.00287517 -0.00330988)
(4.29806 0.00217857 -0.00312935)
(4.30351 0.0020215 -0.00250784)
(4.30353 0.00241049 -0.00298586)
(4.30455 0.00266974 -0.00401118)
(4.30444 0.00249221 -0.00429219)
(4.30505 0.00255521 -0.00398314)
(4.30647 0.00253746 -0.00316429)
(4.30745 0.00212786 -0.00221652)
(4.30902 0.00211882 -0.00182885)
(4.30972 0.00250217 -0.00132432)
(4.30892 0.00243266 -0.000350166)
(4.30445 0.00186616 0.000533098)
(4.3091 0.00180997 0.00112676)
(4.30859 0.0020645 0.000645612)
(4.30919 0.00235266 -0.000356495)
(4.30851 0.00253095 -0.000743701)
(4.30912 0.00232725 -0.000246049)
(4.30947 0.00246838 -2.43854e-05)
(4.30996 0.00275203 -0.000340851)
(4.30962 0.00282904 -0.000160036)
(4.3085 0.0034579 -0.000225829)
(4.30376 0.00284703 -0.000478123)
(4.29918 0.00690379 -0.000959323)
(4.28843 0.00581539 0.000334598)
(4.2707 0.0188947 -0.00160356)
(4.22998 0.0142494 0.000740125)
(4.17796 0.0452632 -0.00255366)
(4.07015 0.0563117 -0.00201719)
(3.93559 0.11175 -0.00757127)
(3.67708 0.169299 -0.0138315)
(3.39253 0.269575 -0.0240562)
(4.42236 0.000289822 0.000283819)
(4.4344 0.00080084 0.000439835)
(4.43531 0.00147973 -0.00104827)
(4.4375 0.0018723 -0.00279065)
(4.43976 0.00206793 -0.00339684)
(4.43763 0.00239417 -0.00228399)
(4.44887 0.00221575 -0.00133139)
(4.45042 0.00154891 -0.00195952)
(4.45367 0.00159156 -0.00225767)
(4.457 0.00151372 -0.00154499)
(4.45517 0.0011693 -0.00132967)
(4.46579 0.00180099 -0.00143846)
(4.46876 0.00214762 -0.00131033)
(4.46612 0.00164862 -0.0011989)
(4.47666 0.00185626 -0.00132456)
(4.4777 0.00247472 -0.00141062)
(4.47568 0.00296991 -0.0014264)
(4.47369 0.0032762 -0.00228069)
(4.48289 0.00165967 -0.00206236)
(4.4807 0.00104697 -0.0024785)
(4.47907 0.000837765 -0.00286101)
(4.48779 0.000218895 -0.00178749)
(4.49358 0.000365761 -0.00225073)
(4.49618 0.000813439 -0.00276769)
(4.49227 0.00137779 -0.00193014)
(4.49944 0.00145906 -0.00116818)
(4.50134 0.00131717 -0.000956086)
(4.49825 0.00070845 -0.000366672)
(4.50773 0.000629744 0.000442958)
(4.50916 0.000944944 -8.24447e-05)
(4.50753 0.000492544 -0.000697696)
(4.50584 -7.79375e-05 0.00048998)
(4.5154 -0.000129328 0.000461163)
(4.51409 -2.11333e-05 -0.00145902)
(4.52502 -0.000577525 -0.00119343)
(4.52812 -0.000377987 -0.000497598)
(4.52486 0.000509314 -0.000161591)
(4.53535 0.00221745 -0.000642079)
(4.53127 0.00206021 -0.000509587)
(4.53865 0.00414499 -0.0016056)
(4.53864 0.00673343 -0.00240367)
(4.5384 0.0129489 -0.00170251)
(4.53335 0.0175361 -0.00274217)
(4.5263 0.0335614 0.00127111)
(4.49624 0.0496165 -0.00495288)
(4.46973 0.0933955 0.00254526)
(4.39682 0.16005 -0.00454977)
(4.31469 0.267483 -0.00359293)
(4.13608 0.457552 -0.010059)
(3.9445 0.683534 -0.0242377)
(4.43433 -0.000167946 -0.000354212)
(4.43892 6.65912e-05 -0.000750707)
(4.44698 -0.000298448 -0.00157707)
(4.44736 -0.000676838 -0.00244839)
(4.44707 -0.000330762 -0.00251924)
(4.44781 0.000126933 -0.00118132)
(4.45925 -0.000600614 -0.000864753)
(4.46229 -0.000350325 -0.00144258)
(4.46535 0.000471308 -0.0019253)
(4.46698 0.000406515 -0.00186782)
(4.46429 -0.00102473 -0.00180072)
(4.46959 -0.00223298 -0.000813193)
(4.47244 -0.00046234 -0.00163195)
(4.4815 -0.000374643 -0.00220267)
(4.47946 -0.000679162 -0.0016877)
(4.49 0.00111817 -0.00109028)
(4.48915 0.00156219 -0.00163866)
(4.49935 0.000996557 -0.00219306)
(4.5036 0.000931354 -0.0028491)
(4.50136 0.000777127 -0.00352009)
(4.51268 -0.000896248 -0.00303147)
(4.50904 -0.00086776 -0.0026168)
(4.51271 -5.31998e-05 -0.00192961)
(4.50925 0.001085 -0.00157371)
(4.51704 0.00161398 -0.00154054)
(4.51552 0.000815021 -0.000369981)
(4.5256 0.000395771 9.08092e-05)
(4.52842 0.000530432 -4.7449e-05)
(4.52538 -3.19279e-05 0.000493187)
(4.53478 -0.000303624 4.67114e-05)
(4.53236 -0.000864869 -0.000425048)
(4.54264 -0.00143065 -0.00070129)
(4.54506 -0.00114094 -0.000537048)
(4.54731 -0.00120205 -0.000829049)
(4.54913 -0.00145836 -0.000943756)
(4.5477 -0.000508131 0.000103304)
(4.54744 7.81278e-05 0.000671846)
(4.55293 0.00100756 -0.000642771)
(4.55775 0.00329689 -0.00069303)
(4.55387 0.00342928 -0.00104295)
(4.55366 0.00673091 -0.00100831)
(4.5567 0.0124796 -0.00112194)