/*--------------------------------*- C++ -*----------------------------------*\
| =========                 |                                                 |
| \\      /  F ield         | OpenFOAM: The Open Source CFD Toolbox           |
|  \\    /   O peration     | Version:  2.1.x                                 |
|   \\  /    A nd           | Web:      www.OpenFOAM.org                      |
|    \\/     M anipulation  |                                                 |
\*---------------------------------------------------------------------------*/
FoamFile
{
    version     2.0;
    format      ascii;
    class       volScalarField;
    location    "0.004";
    object      k;
}
// * * * * * * * * * * * * * * * * * * * * * * * * * * * * * * * * * * * * * //

dimensions      [0 2 -2 0 0 0 0];

internalField   nonuniform List<scalar> 
12225
(
8.79279
8.85755
6.79583
4.88614
3.80601
3.36049
3.09128
2.78089
2.58109
2.43998
2.48347
2.47026
2.41338
2.31675
2.37014
2.47608
2.666
2.74824
2.37108
4.929
5.27052
5.00099
4.38492
3.97031
3.7055
3.31393
3.06293
2.8142
2.6734
2.59922
2.49823
2.36698
2.27757
2.19629
2.10571
2.08325
0.198491
1.22608
1.80245
2.397
2.47693
2.38299
2.28908
2.27928
2.26022
2.13582
1.84444
1.75157
1.74137
1.72645
1.67578
1.52269
1.32261
1.22175
0.0107599
0.146842
0.320721
0.60952
0.806184
0.806323
0.791238
0.842742
0.972425
0.967788
0.873628
0.779236
0.78069
0.795649
0.781784
0.740589
0.639585
0.556941
0.000448373
0.0110302
0.032068
0.0754649
0.162592
0.169203
0.159094
0.167488
0.228976
0.258899
0.25028
0.215801
0.210038
0.212515
0.210099
0.204354
0.19568
0.183162
4.36871e-05
0.000622268
0.00202988
0.00647248
0.0230957
0.0244903
0.019673
0.0198197
0.0334662
0.0469162
0.0464257
0.0404651
0.0367209
0.0365471
0.0381325
0.0398849
0.0403752
0.0404085
2.35121e-05
5.22909e-05
0.000129279
0.000510171
0.00247044
0.00271987
0.00198657
0.00182953
0.00325502
0.00527714
0.00532135
0.00478654
0.00404594
0.00392792
0.00404486
0.0045772
0.00485164
0.00503024
2.35636e-05
3.45319e-05
3.89172e-05
6.57294e-05
0.000259682
0.000335466
0.000291503
0.000271769
0.00036532
0.000718971
0.000843336
0.000829484
0.000713799
0.000617892
0.000602684
0.000623011
0.00065145
0.000704156
2.29836e-05
2.89089e-05
3.1526e-05
3.37045e-05
4.62477e-05
7.42445e-05
7.85148e-05
7.96984e-05
8.9988e-05
0.000132488
0.00024388
0.000315534
0.000340846
0.000348576
0.000352041
0.000345444
0.000330929
0.000349394
2.54867e-05
2.9048e-05
3.03027e-05
3.60184e-05
5.34256e-05
5.88923e-05
6.21231e-05
6.27173e-05
6.07052e-05
6.09023e-05
6.47744e-05
6.72251e-05
6.95049e-05
7.35325e-05
8.21354e-05
0.000108692
0.000121842
0.000133113
2.20375e-05
2.61632e-05
2.95756e-05
3.74289e-05
4.22356e-05
4.2153e-05
3.93455e-05
3.2484e-05
2.94352e-05
2.92405e-05
3.06761e-05
3.54018e-05
4.20243e-05
4.5986e-05
5.20712e-05
5.8262e-05
5.85733e-05
6.49359e-05
2.13739e-05
2.25959e-05
2.55033e-05
3.33428e-05
5.96749e-05
8.18845e-05
8.33929e-05
7.7688e-05
6.58215e-05
5.53218e-05
4.58966e-05
4.03611e-05
3.75744e-05
3.68284e-05
3.80615e-05
4.55759e-05
4.86251e-05
5.67804e-05
2.33174e-05
2.30171e-05
2.27822e-05
2.32908e-05
2.70596e-05
3.19626e-05
3.24555e-05
3.19905e-05
3.07836e-05
3.04181e-05
3.06514e-05
3.19019e-05
3.6764e-05
4.3388e-05
4.54691e-05
4.62452e-05
5.0177e-05
6.0608e-05
2.21854e-05
2.36852e-05
2.44335e-05
2.80883e-05
3.08954e-05
3.05792e-05
2.77309e-05
2.51981e-05
2.48931e-05
2.51992e-05
2.64309e-05
2.92741e-05
3.55312e-05
4.90184e-05
6.91978e-05
9.44864e-05
0.000101156
0.000103487
2.14718e-05
2.33845e-05
2.72207e-05
2.80307e-05
2.75151e-05
2.73017e-05
2.73281e-05
2.76759e-05
2.81247e-05
2.8005e-05
2.78316e-05
2.80114e-05
2.892e-05
3.09504e-05
3.35389e-05
3.89449e-05
5.73546e-05
0.000174372
2.30189e-05
2.48511e-05
2.47044e-05
2.4748e-05
2.57085e-05
3.08804e-05
3.58161e-05
3.63131e-05
3.51944e-05
3.07409e-05
2.78992e-05
2.77033e-05
2.8206e-05
3.02292e-05
3.65101e-05
3.8854e-05
4.00628e-05
5.04704e-05
2.18122e-05
2.17469e-05
2.25564e-05
2.56286e-05
3.13551e-05
3.31467e-05
3.25007e-05
2.96791e-05
2.77904e-05
2.74195e-05
2.71733e-05
2.70577e-05
2.70905e-05
2.73645e-05
2.88722e-05
3.39466e-05
3.76003e-05
3.75287e-05
2.24181e-05
2.5298e-05
2.53594e-05
2.42198e-05
2.28773e-05
2.27583e-05
2.30938e-05
2.43586e-05
2.82691e-05
3.75484e-05
4.32184e-05
4.411e-05
4.3472e-05
3.98751e-05
3.5373e-05
3.3135e-05
3.321e-05
3.65613e-05
2.22701e-05
2.20174e-05
2.24319e-05
2.25699e-05
2.30989e-05
2.4278e-05
2.48259e-05
2.52805e-05
2.55144e-05
2.5681e-05
2.65703e-05
3.11687e-05
3.94785e-05
4.55102e-05
4.9537e-05
5.08152e-05
5.11495e-05
5.10408e-05
2.08075e-05
2.42721e-05
3.04855e-05
3.07269e-05
2.75844e-05
2.49744e-05
2.48686e-05
2.58645e-05
2.79159e-05
2.83985e-05
2.82805e-05
2.81116e-05
2.80856e-05
2.78863e-05
2.77443e-05
2.7748e-05
2.79668e-05
2.88984e-05
2.16012e-05
2.2578e-05
2.70359e-05
2.84879e-05
2.8033e-05
2.70401e-05
2.68074e-05
2.66643e-05
2.65053e-05
2.64747e-05
2.65191e-05
2.67916e-05
2.75822e-05
2.9134e-05
3.08774e-05
3.18008e-05
3.23008e-05
3.29467e-05
2.08666e-05
2.27347e-05
2.79893e-05
3.0999e-05
3.114e-05
3.09084e-05
2.9892e-05
2.8739e-05
2.85653e-05
2.90526e-05
3.10032e-05
3.46532e-05
3.82423e-05
4.16423e-05
4.40161e-05
4.49848e-05
4.6057e-05
4.77012e-05
2.07458e-05
2.44366e-05
2.73137e-05
2.7946e-05
2.90868e-05
3.21779e-05
3.56421e-05
4.10482e-05
5.2312e-05
8.38199e-05
0.000120761
0.000141571
0.00014917
0.000150407
0.000150898
0.000153161
0.000162725
0.000185935
2.24189e-05
3.00117e-05
3.44917e-05
4.60582e-05
7.89781e-05
0.000155677
0.000222607
0.000315525
0.00051214
0.000806685
0.00104342
0.0011772
0.00122521
0.0012448
0.00128266
0.00137886
0.00165011
0.00224577
2.22333e-05
3.75516e-05
0.000126972
0.000412113
0.00111456
0.00216474
0.00323655
0.00517961
0.00794554
0.010702
0.0125733
0.013495
0.0138383
0.014132
0.0147514
0.0161678
0.0199896
0.0239427
3.08049e-05
0.000575434
0.00312764
0.00948954
0.0201064
0.0327743
0.0478964
0.0650978
0.081903
0.0952126
0.102452
0.105119
0.1059
0.107054
0.110074
0.118301
0.13024
0.141407
0.000551225
0.0155193
0.0662368
0.152575
0.232855
0.313944
0.386508
0.439737
0.474871
0.49583
0.50216
0.504036
0.504323
0.506301
0.510338
0.513548
0.513357
0.510842
0.0239127
0.284179
0.836837
1.17551
1.42563
1.61591
1.70758
1.70884
1.69238
1.64903
1.59073
1.5463
1.49758
1.45818
1.40592
1.37058
1.31503
1.27947
0.617077
3.10743
4.2599
4.3856
4.26264
3.96748
3.64874
3.35437
3.08861
2.84967
2.64471
2.46387
2.30077
2.15417
2.0154
1.90026
1.77342
1.69929
6.60445
9.54043
8.49102
6.42218
4.97018
4.02164
3.38671
2.94
2.6095
2.34755
2.13127
1.94561
1.78765
1.65208
1.52847
1.41891
1.30802
1.22393
0.000101509
9.18774e-05
0.000107275
0.000148493
0.000223824
0.000335996
0.000497365
0.000719923
0.00101444
0.0013909
0.00185766
0.00242043
0.00308355
0.00384928
0.00471817
0.00568959
0.0067658
0.00796705
0.00930327
0.0107938
0.0124617
0.0143346
0.0164486
0.0188403
0.0215584
0.0246575
0.0281961
0.0322359
0.0368473
0.0421037
0.0480777
0.054843
0.0624754
0.071049
0.0806279
0.0912654
0.10301
0.115902
0.12997
0.145218
0.161635
0.179206
0.197898
0.217659
0.238417
0.260096
0.282615
0.305876
0.329771
0.354193
0.379035
0.404188
0.429539
0.454981
0.480419
0.50576
0.530909
0.555786
0.580323
0.60446
0.628136
0.651302
0.673922
0.69597
0.717418
0.738244
0.758439
0.778002
0.79693
0.815224
0.832865
0.849945
0.866264
0.881802
0.896663
0.910922
0.924628
0.937819
0.950519
0.962756
0.974556
0.985944
0.996935
1.00755
1.01781
1.02774
1.03733
1.04661
1.05558
1.06427
1.0727
1.08087
1.0888
1.0965
1.10398
1.11124
1.11832
1.1252
1.1319
1.13842
1.14479
1.151
1.15706
1.16298
1.16875
1.1744
1.17993
1.18535
1.19064
1.19583
1.20091
1.20589
1.21078
1.21558
1.22029
1.2249
1.22944
1.2339
1.23828
1.24258
1.24682
1.25098
1.25507
1.25911
1.26307
1.26697
1.27081
1.27458
1.2783
1.28195
1.28555
1.28908
1.29256
1.29597
1.29934
1.30265
1.3059
1.30909
1.31223
1.31531
1.31833
1.3213
1.32422
1.32707
1.32988
1.33262
1.3353
1.33792
1.34048
1.34299
1.34544
1.34782
1.35014
1.35239
1.35458
1.3567
1.35874
1.36071
1.36259
1.36438
1.36606
1.36763
1.36907
1.37035
1.37146
1.37236
1.37296
1.3734
1.37303
1.37337
1.37032
1.3717
1.36288
1.36567
1.34938
1.35048
1.33035
1.30973
1.29384
1.20535
0.00073969
0.000243096
0.000104717
8.34428e-05
8.45445e-05
9.20718e-05
0.000102233
0.000114084
0.00012725
0.000141093
0.00015505
0.000168655
0.0001821
0.000197117
0.000216882
0.000246548
0.000289226
0.000338806
0.000395962
0.000461246
0.000535364
0.000619052
0.000712493
0.000816788
0.000933168
0.00106228
0.00120562
0.00136502
0.00154262
0.00174093
0.00196277
0.00221142
0.00249081
0.00280523
0.00315988
0.00356015
0.00401108
0.00451884
0.00508966
0.00572985
0.00644607
0.00724502
0.00813312
0.00911673
0.0102019
0.0113945
0.0126995
0.0141213
0.0156638
0.0173301
0.0191225
0.0210424
0.0230899
0.0252646
0.0275651
0.0299893
0.0325341
0.0351954
0.0379686
0.0408487
0.0438301
0.0469067
0.0500717
0.0533188
0.0566408
0.0600319
0.0634823
0.0669908
0.070545
0.0741325
0.0777953
0.0813964
0.085144
0.0891007
0.0932035
0.0974153
0.101703
0.106043
0.110416
0.114812
0.119207
0.123602
0.127972
0.132329
0.136643
0.140912
0.145136
0.149315
0.153449
0.157538
0.161584
0.165594
0.169569
0.173508
0.177413
0.181287
0.185133
0.188953
0.192749
0.196521
0.200273
0.204007
0.207728
0.211436
0.215133
0.218821
0.222504
0.226185
0.229865
0.233545
0.237225
0.24091
0.244601
0.248303
0.252017
0.255744
0.259484
0.26324
0.267015
0.270812
0.274632
0.278477
0.282347
0.286243
0.290168
0.294122
0.298108
0.302127
0.306181
0.310271
0.314397
0.318562
0.322766
0.327008
0.331292
0.335618
0.339989
0.344404
0.348863
0.353369
0.35792
0.362518
0.367165
0.371861
0.376607
0.381402
0.386249
0.391146
0.396096
0.401099
0.406156
0.411267
0.416432
0.421652
0.426927
0.432258
0.437646
0.443092
0.448595
0.454157
0.45978
0.465462
0.471209
0.477007
0.482897
0.488775
0.494908
0.500672
0.507457
0.512482
0.520747
0.52467
0.534362
0.537742
0.549675
0.551825
0.567864
0.56909
0.58544
0.639287
0.0027509
0.000698881
0.000177846
9.27172e-05
8.19071e-05
8.0752e-05
8.18774e-05
8.38785e-05
8.62871e-05
8.94115e-05
9.3366e-05
9.84082e-05
0.000104692
0.000112445
0.000121869
0.000133341
0.000146745
0.000161528
0.000177871
0.000195545
0.00021414
0.000233184
0.000252126
0.000270721
0.000288334
0.000304231
0.000318153
0.000329802
0.000339027
0.000345652
0.000349574
0.000350897
0.000350033
0.000346381
0.000339208
0.000330026
0.000319806
0.000309451
0.00029935
0.000289721
0.000281092
0.000274054
0.000268973
0.000266059
0.000265491
0.000267594
0.00027265
0.000280801
0.000292227
0.000307133
0.000325672
0.000347984
0.000374265
0.000404666
0.00043932
0.00047839
0.000522011
0.000570346
0.000623536
0.00068171
0.00074501
0.000813531
0.00088735
0.000966581
0.00105124
0.00114139
0.00123698
0.00133825
0.0014447
0.00155693
0.00167446
0.00179699
0.001925
0.00205904
0.00219986
0.00234786
0.00250358
0.00266513
0.00283707
0.00301007
0.00320058
0.00338318
0.00358981
0.00378265
0.00400325
0.0042505
0.0045209
0.00481144
0.00511803
0.00543931
0.00577199
0.0061138
0.00646321
0.00681891
0.0071802
0.00754617
0.00791613
0.00828957
0.00866585
0.00904442
0.00942509
0.0098078
0.0101925
0.0105792
0.0109677
0.0113582
0.0117509
0.0121459
0.0125435
0.0129435
0.0133462
0.013752
0.0141612
0.0145744
0.0149918
0.0154135
0.0158399
0.0162714
0.0167086
0.0171519
0.0176018
0.0180585
0.0185223
0.0189937
0.019473
0.0199607
0.0204573
0.0209632
0.0214788
0.0220046
0.0225411
0.0230887
0.0236478
0.0242188
0.0248023
0.0253985
0.0260083
0.0266321
0.0272703
0.0279235
0.0285921
0.0292764
0.0299771
0.0306948
0.0314301
0.0321836
0.0329558
0.0337472
0.0345585
0.0353904
0.0362436
0.0371189
0.038017
0.0389387
0.0398848
0.0408561
0.0418537
0.0428786
0.0439319
0.0450158
0.0461317
0.0472811
0.0484688
0.049688
0.0509703
0.0522431
0.0537039
0.0549179
0.05682
0.0577007
0.0603329
0.0611362
0.0644167
0.0650206
0.0699977
0.0702782
0.077521
0.0786837
0.0858196
0.113459
0.00746147
0.00170208
0.00034843
0.000123466
9.39171e-05
9.14238e-05
9.35533e-05
9.73345e-05
0.000102056
0.000108002
0.000115563
0.000124873
0.000136012
0.000149405
0.000164683
0.000182132
0.000201896
0.000223086
0.000245448
0.000268818
0.000292692
0.000316055
0.000337894
0.000357807
0.00037521
0.000389185
0.000399416
0.000405364
0.000407298
0.000405009
0.000398205
0.000388141
0.000375426
0.000360537
0.000343919
0.000326071
0.000307136
0.000287405
0.000267186
0.000246831
0.000226719
0.000207144
0.000188285
0.000170284
0.000153292
0.000137397
0.000122655
0.000109097
9.66878e-05
8.54173e-05
7.53195e-05
6.62985e-05
5.81428e-05
5.08572e-05
4.44454e-05
3.88747e-05
3.40598e-05
2.99589e-05
2.64978e-05
2.35936e-05
2.12345e-05
1.93319e-05
1.77954e-05
1.67014e-05
1.59321e-05
1.53307e-05
1.50939e-05
1.5081e-05
1.52557e-05
1.56107e-05
1.61221e-05
1.67786e-05
1.75681e-05
1.84783e-05
1.95054e-05
2.0648e-05
2.19079e-05
2.32632e-05
2.47661e-05
2.63144e-05
2.80825e-05
2.98447e-05
3.18011e-05
3.38705e-05
3.59785e-05
3.82956e-05
4.09678e-05
4.35195e-05
4.70316e-05
4.99961e-05
5.36473e-05
5.89837e-05
6.56561e-05
7.34143e-05
8.20393e-05
9.13621e-05
0.000101265
0.000111661
0.000122474
0.000133639
0.00014511
0.000156857
0.000168849
0.000181062
0.000193474
0.000206071
0.000218843
0.00023178
0.000244871
0.000258106
0.000271482
0.000285008
0.000298693
0.000312543
0.000326558
0.000340742
0.000355106
0.000369669
0.000384454
0.000399479
0.000414754
0.000430289
0.000446098
0.0004622
0.000478618
0.00049538
0.00051251
0.000530027
0.00054795
0.000566299
0.000585104
0.000604397
0.000624205
0.000644553
0.000665467
0.000686978
0.000709121
0.000731932
0.000755445
0.000779691
0.000804706
0.000830525
0.000857185
0.000884732
0.000913209
0.000942657
0.000973118
0.00100465
0.00103731
0.00107116
0.00110626
0.00114267
0.00118047
0.00121972
0.00126053
0.00130298
0.00134718
0.00139328
0.0014414
0.00149176
0.00154461
0.00160004
0.00165897
0.00171999
0.0017885
0.00185277
0.00194291
0.00199644
0.00213894
0.00216932
0.00237342
0.00240828
0.00271936
0.00272251
0.00327048
0.00325156
0.00418493
0.00436459
0.00537107
0.0100245
0.0160484
0.00335108
0.000614142
0.000173038
0.000118628
0.000114658
0.00011955
0.000127337
0.000137017
0.000148801
0.000163081
0.000180373
0.000200791
0.000224274
0.000251093
0.000280871
0.000313808
0.000348901
0.000384692
0.000420647
0.000455273
0.000487814
0.000516234
0.000539916
0.000558343
0.000570172
0.000575782
0.000575259
0.000568553
0.00055677
0.000540196
0.000519457
0.000495321
0.000468544
0.000439905
0.000410191
0.000380058
0.000349991
0.000320428
0.000291794
0.000264413
0.000238447
0.000213998
0.000191173
0.000170054
0.000150671
0.00013296
0.000116839
0.000102283
8.92187e-05
7.75051e-05
6.70651e-05
5.78791e-05
4.98261e-05
4.27699e-05
3.66004e-05
3.12216e-05
2.65486e-05
2.25046e-05
1.90178e-05
1.60234e-05
1.34612e-05
1.12758e-05
9.41999e-06
7.84891e-06
6.52323e-06
5.41049e-06
4.47814e-06
3.69873e-06
3.0504e-06
2.51349e-06
2.07069e-06
1.70702e-06
1.40962e-06
1.16766e-06
9.71742e-07
8.14289e-07
6.88088e-07
5.88727e-07
5.09802e-07
4.50318e-07
4.03298e-07
3.69844e-07
3.4602e-07
3.26795e-07
3.1747e-07
3.15946e-07
3.15085e-07
3.21911e-07
3.31559e-07
3.38771e-07
3.59898e-07
3.84288e-07
4.0927e-07
4.65964e-07
5.49552e-07
6.54912e-07
7.78606e-07
9.18137e-07
1.07164e-06
1.23774e-06
1.41536e-06
1.60356e-06
1.80151e-06
2.00843e-06
2.2236e-06
2.44636e-06
2.67602e-06
2.91197e-06
3.1537e-06
3.40081e-06
3.65306e-06
3.91023e-06
4.172e-06
4.43804e-06
4.70814e-06
4.98238e-06
5.26099e-06
5.54418e-06
5.8321e-06
6.12464e-06
6.4218e-06
6.72375e-06
7.03091e-06
7.34379e-06
7.66291e-06
7.98859e-06
8.32099e-06
8.66039e-06
9.00718e-06
9.36207e-06
9.72582e-06
1.00991e-05
1.04823e-05
1.08759e-05
1.12805e-05
1.16969e-05
1.21259e-05
1.25683e-05
1.30251e-05
1.3497e-05
1.39848e-05
1.44891e-05
1.50111e-05
1.55517e-05
1.61118e-05
1.66928e-05
1.72961e-05
1.79234e-05
1.85758e-05
1.92551e-05
1.99627e-05
2.07008e-05
2.14718e-05
2.22781e-05
2.31233e-05
2.40105e-05
2.4944e-05
2.59291e-05
2.69724e-05
2.80845e-05
2.92669e-05
3.05618e-05
3.19e-05
3.35316e-05
3.49177e-05
3.74132e-05
3.82838e-05
4.28097e-05
4.3169e-05
4.98399e-05
5.03918e-05
6.22457e-05
6.19161e-05
8.51903e-05
8.55795e-05
0.000129551
0.000146889
0.000207884
0.000597865
0.029341
0.00550835
0.000946368
0.000237816
0.000157681
0.000153897
0.000165051
0.000181631
0.00020203
0.000226571
0.000256421
0.000291972
0.000333469
0.000381027
0.000435357
0.000495362
0.000560281
0.000628186
0.000695393
0.000759504
0.000816183
0.000864653
0.000901989
0.000924865
0.000934632
0.000932629
0.000917767
0.000892801
0.000859232
0.000818885
0.000773646
0.000725297
0.00067526
0.000624583
0.000574164
0.000524848
0.000477332
0.000432084
0.000389379
0.000349388
0.000312218
0.000277921
0.000246492
0.000217864
0.000191916
0.000168481
0.000147414
0.000128575
0.000111803
9.69249e-05
8.37715e-05
7.21805e-05
6.20041e-05
5.31053e-05
4.5348e-05
3.86055e-05
3.27666e-05
2.7731e-05
2.34035e-05
1.96953e-05
1.65264e-05
1.38276e-05
1.15372e-05
9.59952e-06
7.9653e-06
6.59104e-06
5.43834e-06
4.47519e-06
3.67328e-06
3.00738e-06
2.45585e-06
2.00025e-06
1.62497e-06
1.31674e-06
1.06433e-06
8.58189e-07
6.90274e-07
5.53861e-07
4.43374e-07
3.54128e-07
2.82226e-07
2.24432e-07
1.78114e-07
1.41103e-07
1.11598e-07
8.81366e-08
6.95652e-08
5.4856e-08
4.32825e-08
3.41864e-08
2.70333e-08
2.14913e-08
1.71594e-08
1.38477e-08
1.13325e-08
9.45921e-09
8.37392e-09
8.00676e-09
8.12236e-09
8.77583e-09
9.82637e-09
1.12299e-08
1.29487e-08
1.49514e-08
1.72117e-08
1.97079e-08
2.24206e-08
2.53318e-08
2.84254e-08
3.16873e-08
3.51055e-08
3.86701e-08
4.23712e-08
4.6198e-08
5.01389e-08
5.41861e-08
5.83352e-08
6.2585e-08
6.69335e-08
7.13786e-08
7.59136e-08
8.05338e-08
8.52387e-08
9.00332e-08
9.49236e-08
9.99152e-08
1.05009e-07
1.10205e-07
1.15503e-07
1.2091e-07
1.26435e-07
1.32092e-07
1.37891e-07
1.43837e-07
1.49937e-07
1.56196e-07
1.62627e-07
1.69241e-07
1.76059e-07
1.83096e-07
1.90366e-07
1.97878e-07
2.05642e-07
2.13671e-07
2.21984e-07
2.30599e-07
2.3954e-07
2.48837e-07
2.58517e-07
2.68596e-07
2.79107e-07
2.90073e-07
3.01539e-07
3.13556e-07
3.2617e-07
3.39458e-07
3.53483e-07
3.6833e-07
3.84119e-07
4.0099e-07
4.19196e-07
4.3874e-07
4.60738e-07
4.83249e-07
5.1301e-07
5.35533e-07
5.86478e-07
5.96219e-07
6.92862e-07
7.00821e-07
8.41465e-07
8.61004e-07
1.13467e-06
1.16038e-06
1.74367e-06
1.87484e-06
3.14639e-06
4.09036e-06
6.58762e-06
2.9881e-05
0.04891
0.00804611
0.00131593
0.000323071
0.00022371
0.000223474
0.000252367
0.000288265
0.000333073
0.0003878
0.000455593
0.000537218
0.000634326
0.000748442
0.000880128
0.00102794
0.00118853
0.00135248
0.00150806
0.00164821
0.00175879
0.00183471
0.00186974
0.00187391
0.00183733
0.00177136
0.00168135
0.00157512
0.00145962
0.00134077
0.00122269
0.00110825
0.000999321
0.000897038
0.000802025
0.000714537
0.000634507
0.000561658
0.000495662
0.000436197
0.000382893
0.000335294
0.000292892
0.00025521
0.000221832
0.00019238
0.000166472
0.000143724
0.000123784
0.000106348
9.11533e-05
7.79524e-05
6.65079e-05
5.66018e-05
4.80479e-05
4.06868e-05
3.43727e-05
2.8968e-05
2.43498e-05
2.04137e-05
1.70707e-05
1.42403e-05
1.18497e-05
9.83469e-06
8.14089e-06
6.7217e-06
5.53619e-06
4.54833e-06
3.72719e-06
3.04649e-06
2.48387e-06
2.02014e-06
1.63892e-06
1.32636e-06
1.0708e-06
8.62383e-07
6.92836e-07
5.55278e-07
4.43979e-07
3.54172e-07
2.81881e-07
2.23819e-07
1.773e-07
1.4013e-07
1.10511e-07
8.69621e-08
6.82805e-08
5.34927e-08
4.18146e-08
3.26181e-08
2.53909e-08
1.97244e-08
1.52906e-08
1.18293e-08
9.1338e-09
7.0398e-09
5.4164e-09
4.16175e-09
3.19625e-09
2.45672e-09
1.89302e-09
1.46614e-09
1.1458e-09
9.0842e-10
7.35658e-10
6.13336e-10
5.3031e-10
4.78021e-10
4.49732e-10
4.39694e-10
4.44865e-10
4.61355e-10
4.86975e-10
5.19956e-10
5.58815e-10
6.02464e-10
6.50123e-10
7.0123e-10
7.55347e-10
8.1215e-10
8.71321e-10
9.32607e-10
9.95843e-10
1.06097e-09
1.12797e-09
1.19682e-09
1.26748e-09
1.33987e-09
1.41393e-09
1.4897e-09
1.56729e-09
1.64686e-09
1.72853e-09
1.81236e-09
1.89839e-09
1.98666e-09
2.07732e-09
2.17054e-09
2.26664e-09
2.36591e-09
2.46854e-09
2.57462e-09
2.68424e-09
2.79757e-09
2.91488e-09
3.03647e-09
3.1628e-09
3.29436e-09
3.43149e-09
3.57442e-09
3.72369e-09
3.87961e-09
4.04296e-09
4.21472e-09
4.39561e-09
4.587e-09
4.78997e-09
5.006e-09
5.23729e-09
5.48633e-09
5.75789e-09
6.0518e-09
6.3906e-09
6.73392e-09
7.22061e-09
7.55319e-09
8.45135e-09
8.58829e-09
1.025e-08
1.05114e-08
1.30117e-08
1.36831e-08
1.8822e-08
2.04908e-08
3.25054e-08
3.91234e-08
7.10381e-08
1.09179e-07
2.05038e-07
1.43363e-06
0.0801766
0.0109282
0.00170822
0.00044585
0.000340416
0.000357919
0.000427862
0.000509974
0.000617724
0.000755192
0.000932221
0.00115472
0.00143221
0.00177112
0.00216817
0.00261494
0.00309675
0.00357247
0.00399425
0.00435527
0.00458495
0.0046909
0.00469246
0.0045438
0.00429793
0.00397997
0.00360906
0.00321997
0.00283603
0.00247579
0.00214876
0.0018584
0.00160444
0.00138406
0.00119339
0.00102858
0.000886148
0.000763082
0.000656744
0.000564845
0.000485414
0.000416776
0.000357509
0.000306389
0.000262331
0.000224367
0.000191655
0.000163484
0.000139259
0.000118461
0.000100623
8.53268e-05
7.22215e-05
6.10158e-05
5.14578e-05
4.33188e-05
3.63936e-05
3.05079e-05
2.55182e-05
2.1301e-05
1.77447e-05
1.47494e-05
1.22304e-05
1.01176e-05
8.35123e-06
6.87824e-06
5.65198e-06
4.63305e-06
3.78867e-06
3.09106e-06
2.51616e-06
2.04339e-06
1.65549e-06
1.33806e-06
1.07901e-06
8.68089e-07
6.96761e-07
5.57945e-07
4.45779e-07
3.55367e-07
2.82646e-07
2.24284e-07
1.77566e-07
1.40275e-07
1.10579e-07
8.69797e-08
6.82634e-08
5.3455e-08
4.17691e-08
3.2572e-08
2.53468e-08
1.96829e-08
1.52522e-08
1.17938e-08
9.10188e-09
7.011e-09
5.3896e-09
4.13464e-09
3.1658e-09
2.41964e-09
1.84602e-09
1.40585e-09
1.06877e-09
8.11167e-10
6.1473e-10
4.65289e-10
3.51869e-10
2.65967e-10
2.01037e-10
1.52079e-10
1.15271e-10
8.76897e-11
6.71091e-11
5.18297e-11
4.0556e-11
3.23041e-11
2.63279e-11
2.20631e-11
1.9085e-11
1.70773e-11
1.57954e-11
1.50868e-11
1.47232e-11
1.4757e-11
1.49896e-11
1.54001e-11
1.59524e-11
1.66155e-11
1.73671e-11
1.81903e-11
1.90745e-11
2.00125e-11
2.10002e-11
2.20339e-11
2.31109e-11
2.42287e-11
2.53865e-11
2.65854e-11
2.78288e-11
2.91203e-11
3.04614e-11
3.18527e-11
3.32941e-11
3.47873e-11
3.63358e-11
3.79446e-11
3.962e-11
4.13688e-11
4.31954e-11
4.51023e-11
4.7098e-11
4.9187e-11
5.13799e-11
5.36934e-11
5.6138e-11
5.87352e-11
6.15024e-11
6.44629e-11
6.76528e-11
7.11141e-11
7.4924e-11
7.9091e-11
8.39871e-11
8.89754e-11
9.63627e-11
1.0135e-10
1.15639e-10
1.18684e-10
1.45096e-10
1.53609e-10
1.94557e-10
2.21917e-10
3.16028e-10
4.00482e-10
6.72048e-10
1.03508e-09
2.09386e-09
4.33451e-09
1.02483e-08
7.96086e-08
0.119673
0.0135374
0.00196674
0.000622246
0.000545777
0.000629883
0.000800658
0.00100981
0.00130885
0.00171508
0.00226856
0.00301156
0.00396943
0.00514572
0.00648388
0.00791822
0.0093658
0.0107563
0.0118846
0.0128232
0.013251
0.0133424
0.01309
0.012315
0.0113334
0.0101554
0.00884388
0.00752775
0.00628831
0.00518419
0.0042404
0.00345647
0.00281877
0.00230653
0.00189607
0.00156619
0.00129947
0.00108219
0.000903831
0.000756505
0.000634276
0.000532548
0.000447622
0.000376506
0.000316812
0.000266638
0.000224437
0.000188912
0.00015897
0.000133704
0.000112371
9.43652e-05
7.91755e-05
6.63656e-05
5.55617e-05
4.64502e-05
3.87732e-05
3.23161e-05
2.68941e-05
2.23455e-05
1.85316e-05
1.53379e-05
1.26699e-05
1.04468e-05
8.59746e-06
7.06083e-06
5.78596e-06
4.73097e-06
3.86041e-06
3.14359e-06
2.55431e-06
2.07076e-06
1.67499e-06
1.35193e-06
1.08883e-06
8.74981e-07
7.01539e-07
5.61228e-07
4.48014e-07
3.56859e-07
2.83614e-07
2.24898e-07
1.77947e-07
1.40504e-07
1.10704e-07
8.70316e-08
6.82724e-08
5.34402e-08
4.17439e-08
3.25426e-08
2.53151e-08
1.96509e-08
1.52225e-08
1.17673e-08
9.07913e-09
6.99182e-09
5.37312e-09
4.12076e-09
3.15433e-09
2.4101e-09
1.83802e-09
1.39914e-09
1.06315e-09
8.06411e-10
6.10615e-10
4.61623e-10
3.48476e-10
2.62688e-10
1.97734e-10
1.4863e-10
1.11567e-10
8.36445e-11
6.26482e-11
4.68876e-11
3.50748e-11
2.62316e-11
1.96171e-11
1.46724e-11
1.09791e-11
8.22467e-12
6.17428e-12
4.65077e-12
3.5192e-12
2.67921e-12
2.05515e-12
1.59225e-12
1.25011e-12
9.98477e-13
8.14348e-13
6.80237e-13
5.83096e-13
5.1341e-13
4.64363e-13
4.30912e-13
4.09529e-13
3.95075e-13
3.90551e-13
3.90102e-13
3.93297e-13
3.99813e-13
4.08998e-13
4.20372e-13
4.33578e-13
4.48408e-13
4.64727e-13
4.82429e-13
5.0145e-13
5.21735e-13
5.43288e-13
5.66123e-13
5.90353e-13
6.16009e-13
6.43133e-13
6.71927e-13
7.02516e-13
7.35205e-13
7.70298e-13
8.08114e-13
8.49299e-13
8.94611e-13
9.45212e-13
1.00243e-12
1.07077e-12
1.14708e-12
1.25595e-12
1.36282e-12
1.57165e-12
1.77551e-12
2.14723e-12
2.85875e-12
3.6859e-12
6.18145e-12
1.05587e-11
2.27773e-11
5.67933e-11
1.37065e-10
4.09952e-10
1.0992e-09
2.88806e-09
1.25422e-08
0.203643
0.0188442
0.00279217
0.00105392
0.000957025
0.00123276
0.00166883
0.00229124
0.00322278
0.00459781
0.00657026
0.00925228
0.0126506
0.0164874
0.020479
0.0243808
0.0280835
0.0313409
0.0339409
0.0360326
0.0368657
0.0363035
0.0354923
0.032668
0.0298084
0.026339
0.0225098
0.0186409
0.0150278
0.0118524
0.00919828
0.00706681
0.00540933
0.00415656
0.00321946
0.00251853
0.00199112
0.00158994
0.00128059
0.00103874
0.000847298
0.0006942
0.000570702
0.000470419
0.000388616
0.000321646
0.000266616
0.000221225
0.00018368
0.000152581
0.000126798
0.000105394
8.7592e-05
7.27662e-05
6.0415e-05
5.01292e-05
4.15655e-05
3.44336e-05
2.84924e-05
2.35446e-05
1.94287e-05
1.60102e-05
1.31744e-05
1.08237e-05
8.87661e-06
7.26609e-06
5.93688e-06
4.84229e-06
3.94235e-06
3.20333e-06
2.59739e-06
2.10169e-06
1.69722e-06
1.36789e-06
1.10018e-06
8.82964e-07
7.07105e-07
5.65088e-07
4.50662e-07
3.58644e-07
2.84794e-07
2.25666e-07
1.78438e-07
1.40805e-07
1.10874e-07
8.7117e-08
6.83059e-08
5.34432e-08
4.17307e-08
3.25193e-08
2.52868e-08
1.96214e-08
1.51938e-08
1.17407e-08
9.0555e-09
6.97173e-09
5.35631e-09
4.10667e-09
3.14256e-09
2.40029e-09
1.82988e-09
1.39249e-09
1.05778e-09
8.02086e-10
6.07128e-10
4.58817e-10
3.46222e-10
2.60877e-10
1.96279e-10
1.47456e-10
1.10618e-10
8.2877e-11
6.20272e-11
4.63823e-11
3.46588e-11
2.58829e-11
1.93183e-11
1.44111e-11
1.07465e-11
8.01385e-12
5.97924e-12
4.46582e-12
3.33973e-12
2.50068e-12
1.87462e-12
1.40743e-12
1.05916e-12
7.9986e-13
6.06718e-13
4.62442e-13
3.54194e-13
2.72669e-13
2.11206e-13
1.64872e-13
1.29889e-13
1.0335e-13
8.3095e-14
6.7554e-14
5.55732e-14
4.62994e-14
3.90855e-14
3.3459e-14
2.90682e-14
2.56534e-14
2.29993e-14
2.09219e-14
1.92847e-14
1.79805e-14
1.69511e-14
1.61592e-14
1.55614e-14
1.51028e-14
1.47991e-14
1.45954e-14
1.44689e-14
1.44163e-14
1.44325e-14
1.45282e-14
1.47263e-14
1.50394e-14
1.55114e-14
1.62958e-14
1.74627e-14
1.94831e-14
2.24654e-14
2.81032e-14
3.79933e-14
6.24493e-14
1.14054e-13
2.67002e-13
6.20443e-13
1.76143e-12
4.76475e-12
1.332e-11
4.03096e-11
1.0553e-10
3.16395e-10
8.54149e-10
2.21938e-09
6.41433e-09
0.282022
0.0219211
0.00284329
0.00149359
0.00178057
0.0025775
0.00380127
0.00573645
0.00891525
0.0136006
0.0202859
0.0287796
0.0381891
0.0476935
0.0563547
0.0647049
0.0715385
0.0773066
0.0826365
0.0863588
0.0876819
0.0852399
0.0833783
0.0754376
0.0690621
0.0612293
0.0527906
0.0437002
0.0349956
0.0271863
0.0205389
0.0151659
0.0110225
0.00798608
0.00581573
0.00427491
0.00318483
0.00241062
0.001854
0.00144655
0.00114219
0.000910513
0.000731229
0.000590606
0.000479173
0.000390161
0.000318574
0.000260685
0.000213686
0.000175413
0.000144153
0.000118549
9.75375e-05
8.02793e-05
6.60952e-05
5.44224e-05
4.47997e-05
3.68586e-05
3.03056e-05
2.49013e-05
2.04457e-05
1.67712e-05
1.37405e-05
1.12421e-05
9.18511e-06
7.49402e-06
6.10554e-06
4.96655e-06
4.03304e-06
3.26898e-06
2.64481e-06
2.13602e-06
1.72204e-06
1.3857e-06
1.11282e-06
8.91855e-07
7.13334e-07
5.69432e-07
4.5366e-07
3.6068e-07
2.86159e-07
2.26566e-07
1.7902e-07
1.41167e-07
1.11087e-07
8.7233e-08
6.83608e-08
5.34611e-08
4.17255e-08
3.24995e-08
2.52597e-08
1.95925e-08
1.51659e-08
1.17158e-08
9.03301e-09
6.9508e-09
5.33797e-09
4.09149e-09
3.13025e-09
2.39019e-09
1.82149e-09
1.38556e-09
1.05212e-09
7.97517e-10
6.03481e-10
4.55916e-10
3.43895e-10
2.58991e-10
1.94749e-10
1.46223e-10
1.09636e-10
8.21006e-11
6.14124e-11
4.58921e-11
3.42655e-11
2.55661e-11
1.90631e-11
1.42063e-11
1.05831e-11
7.88439e-12
5.87733e-12
4.38569e-12
3.27645e-12
2.45039e-12
1.8346e-12
1.37568e-12
1.03407e-12
7.79964e-13
5.90693e-13
4.49171e-13
3.42883e-13
2.62843e-13
2.02579e-13
1.57227e-13
1.23017e-13
9.70438e-14
7.71759e-14
6.18743e-14
5.00241e-14
4.08067e-14
3.3591e-14
2.79218e-14
2.34536e-14
1.99284e-14
1.71315e-14
1.4876e-14
1.30307e-14
1.1499e-14
1.02284e-14
9.18319e-15
8.32235e-15
7.60365e-15
6.98224e-15
6.43915e-15
5.95872e-15
5.52401e-15
5.1359e-15
4.83361e-15
4.5468e-15
4.29655e-15
4.26989e-15
4.34468e-15
4.62975e-15
5.33646e-15
6.90529e-15
1.04145e-14
1.84046e-14
3.86518e-14
8.87062e-14
2.29617e-13
6.00585e-13
1.65122e-12
4.69542e-12
1.24976e-11
3.73854e-11
9.76387e-11
2.71787e-10
7.46157e-10
1.83835e-09
4.94146e-09
0.494131
0.0329357
0.00422606
0.00302734
0.00353267
0.00570639
0.00930808
0.0151969
0.0243376
0.0380799
0.055782
0.0765822
0.0993545
0.113486
0.12607
0.13582
0.144491
0.152992
0.162691
0.168759
0.170961
0.165754
0.159239
0.141583
0.127921
0.113417
0.100847
0.0860833
0.0707858
0.0563638
0.0431393
0.0315273
0.0222632
0.0155436
0.0108473
0.00756832
0.00531244
0.00378039
0.00274292
0.00203384
0.00153967
0.00118651
0.000927427
0.000732804
0.000583803
0.000468084
0.000377184
0.000305098
0.000247487
0.000201161
0.000163741
0.000133437
0.00010886
8.8872e-05
7.25884e-05
5.93053e-05
4.84596e-05
3.9599e-05
3.23586e-05
2.64375e-05
2.15896e-05
1.76179e-05
1.43653e-05
1.17035e-05
9.52637e-06
7.74607e-06
6.29059e-06
5.10145e-06
4.131e-06
3.34014e-06
2.69656e-06
2.17355e-06
1.74905e-06
1.40495e-06
1.12645e-06
9.01484e-07
7.2012e-07
5.74182e-07
4.56943e-07
3.62916e-07
2.8767e-07
2.27569e-07
1.79677e-07
1.41584e-07
1.11336e-07
8.73768e-08
6.84326e-08
5.34881e-08
4.17277e-08
3.24829e-08
2.52335e-08
1.95637e-08
1.51377e-08
1.16912e-08
9.01245e-09
6.93212e-09
5.32005e-09
4.07543e-09
3.11668e-09
2.37896e-09
1.81242e-09
1.37833e-09
1.0463e-09
7.92769e-10
5.99621e-10
4.52793e-10
3.41367e-10
2.56936e-10
1.93077e-10
1.44876e-10
1.08567e-10
8.12637e-11
6.07575e-11
4.53732e-11
3.38478e-11
2.52279e-11
1.87911e-11
1.39904e-11