/*--------------------------------*- C++ -*----------------------------------*\
| =========                 |                                                 |
| \\      /  F ield         | OpenFOAM: The Open Source CFD Toolbox           |
|  \\    /   O peration     | Version:  2.1.x                                 |
|   \\  /    A nd           | Web:      www.OpenFOAM.org                      |
|    \\/     M anipulation  |                                                 |
\*---------------------------------------------------------------------------*/
FoamFile
{
    version     2.0;
    format      ascii;
    class       volScalarField;
    location    "0.004";
    object      k_0;
}
// * * * * * * * * * * * * * * * * * * * * * * * * * * * * * * * * * * * * * //

dimensions      [0 2 -2 0 0 0 0];

internalField   nonuniform List<scalar> 
12225
(
8.77464
8.84554
6.78943
4.87967
3.80355
3.36431
3.08987
2.77515
2.5779
2.44267
2.4886
2.47018
2.40765
2.31397
2.37433
2.48304
2.67214
2.7523
2.36196
4.92621
5.26832
4.99787
4.38071
3.97617
3.7075
3.31098
3.06174
2.81344
2.67734
2.60297
2.49729
2.36529
2.27599
2.19439
2.10629
2.08631
0.197741
1.22213
1.80411
2.39849
2.47206
2.37795
2.29344
2.28594
2.26441
2.12774
1.83902
1.75645
1.74806
1.73228
1.67691
1.51199
1.31509
1.21702
0.010645
0.144945
0.322277
0.61354
0.802876
0.80104
0.788993
0.849849
0.975444
0.967164
0.8656
0.779438
0.784361
0.798829
0.783529
0.739714
0.633312
0.550821
0.00044302
0.0108898
0.032028
0.0773983
0.162038
0.166865
0.157393
0.167671
0.233011
0.259039
0.24879
0.214113
0.2103
0.213387
0.210999
0.205287
0.196329
0.181832
4.26758e-05
0.000612145
0.00203242
0.00677758
0.0231898
0.0239502
0.0191309
0.0197325
0.0347907
0.0470375
0.0462279
0.0398237
0.0365948
0.0366091
0.0386587
0.0403429
0.0407058
0.0404396
2.31111e-05
5.17014e-05
0.000130347
0.000545302
0.00248955
0.00264561
0.00190273
0.0018114
0.003428
0.00529602
0.00529899
0.00468718
0.00400383
0.00392299
0.00410014
0.00466697
0.00490309
0.00502897
2.38545e-05
3.42503e-05
3.87357e-05
6.80894e-05
0.000264706
0.000328639
0.00028435
0.000269698
0.000381183
0.000738517
0.000840988
0.000820411
0.000694681
0.000609596
0.000599718
0.000626879
0.000655086
0.000706625
2.3042e-05
2.892e-05
3.1353e-05
3.3715e-05
4.71492e-05
7.43939e-05
7.81023e-05
7.96741e-05
9.11942e-05
0.000139523
0.000252411
0.000319104
0.00034146
0.000347949
0.000350548
0.000343142
0.000330879
0.000354272
2.57639e-05
2.90788e-05
3.03949e-05
3.68449e-05
5.42825e-05
5.9113e-05
6.21481e-05
6.245e-05
6.04534e-05
6.1022e-05
6.52151e-05
6.7505e-05
6.98873e-05
7.41642e-05
8.38034e-05
0.000111397
0.000123163
0.000134493
2.22531e-05
2.62169e-05
2.98224e-05
3.77515e-05
4.21202e-05
4.18981e-05
3.87183e-05
3.19962e-05
2.92492e-05
2.91849e-05
3.09048e-05
3.59452e-05
4.24399e-05
4.64412e-05
5.26575e-05
5.81982e-05
5.83267e-05
6.55106e-05
2.14768e-05
2.27039e-05
2.57379e-05
3.39505e-05
6.10944e-05
8.14684e-05
8.23002e-05
7.5892e-05
6.42919e-05
5.40054e-05
4.49177e-05
3.975e-05
3.72795e-05
3.67451e-05
3.82938e-05
4.61339e-05
4.89652e-05
5.85176e-05
2.34428e-05
2.28835e-05
2.27014e-05
2.33234e-05
2.73619e-05
3.19788e-05
3.23453e-05
3.18139e-05
3.06602e-05
3.03662e-05
3.06454e-05
3.2061e-05
3.7353e-05
4.3553e-05
4.52952e-05
4.61514e-05
5.02332e-05
5.89376e-05
2.23051e-05
2.36054e-05
2.44215e-05
2.82643e-05
3.08e-05
3.03693e-05
2.73718e-05
2.50695e-05
2.48575e-05
2.52229e-05
2.65773e-05
2.96294e-05
3.64854e-05
5.0775e-05
7.15952e-05
9.55485e-05
0.000100219
0.000102816
2.13521e-05
2.3571e-05
2.72978e-05
2.79304e-05
2.73541e-05
2.7171e-05
2.72159e-05
2.76233e-05
2.8061e-05
2.79426e-05
2.78068e-05
2.80238e-05
2.90351e-05
3.1107e-05
3.38925e-05
3.98953e-05
6.29835e-05
0.000165735
2.3154e-05
2.48017e-05
2.46422e-05
2.47051e-05
2.57723e-05
3.12483e-05
3.58371e-05
3.61709e-05
3.48557e-05
3.02746e-05
2.77616e-05
2.76682e-05
2.82566e-05
3.05965e-05
3.68551e-05
3.87128e-05
4.02734e-05
5.2428e-05
2.17014e-05
2.17414e-05
2.26578e-05
2.59465e-05
3.14822e-05
3.30238e-05
3.22804e-05
2.93892e-05
2.76713e-05
2.73565e-05
2.71272e-05
2.70301e-05
2.70729e-05
2.74056e-05
2.92279e-05
3.43847e-05
3.72047e-05
3.75501e-05
2.23468e-05
2.53538e-05
2.53003e-05
2.40528e-05
2.28198e-05
2.27477e-05
2.31417e-05
2.45444e-05
2.88881e-05
3.81671e-05
4.3368e-05
4.40259e-05
4.32139e-05
3.92072e-05
3.49184e-05
3.29617e-05
3.31766e-05
3.65512e-05
2.1939e-05
2.20183e-05
2.24415e-05
2.2573e-05
2.31615e-05
2.43306e-05
2.48481e-05
2.5278e-05
2.54903e-05
2.56874e-05
2.67384e-05
3.19957e-05
4.02248e-05
4.60134e-05
4.97446e-05
5.08411e-05
5.10829e-05
5.09309e-05
2.08041e-05
2.45065e-05
3.0467e-05
3.05103e-05
2.71898e-05
2.48681e-05
2.48486e-05
2.59966e-05
2.79526e-05
2.83599e-05
2.82206e-05
2.80632e-05
2.80361e-05
2.78376e-05
2.77243e-05
2.77418e-05
2.79934e-05
2.89675e-05
2.15345e-05
2.26877e-05
2.72319e-05
2.84324e-05
2.78883e-05
2.69472e-05
2.67594e-05
2.66357e-05
2.64907e-05
2.64685e-05
2.65227e-05
2.68219e-05
2.76794e-05
2.92604e-05
3.09658e-05
3.18265e-05
3.23012e-05
3.29473e-05
2.09729e-05
2.28419e-05
2.81403e-05
3.09025e-05
3.09921e-05
3.07343e-05
2.96781e-05
2.86254e-05
2.85121e-05
2.90773e-05
3.12104e-05
3.48649e-05
3.84281e-05
4.17517e-05
4.39849e-05
4.48896e-05
4.59809e-05
4.77801e-05
2.07928e-05
2.44477e-05
2.7253e-05
2.7891e-05
2.90878e-05
3.22178e-05
3.56675e-05
4.12589e-05
5.31361e-05
8.61851e-05
0.000121601
0.000140678
0.000147247
0.000148232
0.000148815
0.000151469
0.000162203
0.00018833
2.26059e-05
3.00881e-05
3.46389e-05
4.64777e-05
8.06592e-05
0.000156794
0.000222522
0.00031749
0.000521013
0.000811579
0.00103731
0.00116046
0.00120332
0.00122391
0.00126602
0.00137297
0.00168063
0.00229914
2.21122e-05
3.73376e-05
0.000127418
0.000415704
0.00112789
0.00216008
0.0032453
0.00523631
0.0080156
0.0107142
0.0124948
0.0133469
0.0136709
0.013991
0.0146769
0.0162634
0.0203266
0.0242006
3.02914e-05
0.000572391
0.00313312
0.00954301
0.020168
0.0328843
0.0481338
0.0654327
0.0821493
0.095122
0.101971
0.104419
0.105225
0.106557
0.11007
0.119094
0.131194
0.142094
0.000534807
0.0154516
0.0663746
0.152702
0.233241
0.314771
0.387297
0.440164
0.474826
0.495233
0.501206
0.503161
0.503784
0.506434
0.510765
0.513885
0.513641
0.51101
0.0238197
0.283394
0.838334
1.1763
1.42676
1.6174
1.70782
1.70854
1.69163
1.64756
1.59007
1.54649
1.49815
1.45887
1.40645
1.37094
1.31496
1.27912
0.622436
3.10784
4.26253
4.38764
4.26396
3.96732
3.64806
3.35341
3.08773
2.84928
2.6449
2.46426
2.30105
2.15423
2.01534
1.90014
1.77338
1.69937
6.60545
9.54398
8.49377
6.42197
4.96849
4.01954
3.38501
2.93891
2.60883
2.34693
2.1306
1.94495
1.78725
1.65185
1.52835
1.41876
1.30808
1.22424
0.000101148
9.13783e-05
0.000106482
0.000147221
0.000221778
0.000332799
0.00049255
0.000712957
0.00100478
0.00137804
0.00184118
0.00240008
0.00305927
0.00382125
0.00468685
0.00565573
0.00673123
0.00793338
0.00927239
0.0107678
0.012443
0.0143258
0.0164525
0.0188599
0.021597
0.0247184
0.0282826
0.0323517
0.0369957
0.0422881
0.0483016
0.0551093
0.0627869
0.0714081
0.0810365
0.0917247
0.10352
0.116465
0.130583
0.14588
0.162345
0.179961
0.198695
0.218494
0.239287
0.260997
0.283541
0.306824
0.330737
0.355171
0.380023
0.405182
0.430535
0.455977
0.481413
0.506748
0.531891
0.55676
0.581289
0.605418
0.629086
0.652244
0.674856
0.696897
0.718339
0.73916
0.759351
0.778911
0.797838
0.816132
0.833775
0.850857
0.86718
0.882723
0.897592
0.911859
0.925575
0.938775
0.951486
0.963735
0.975546
0.986946
0.99795
1.00858
1.01885
1.02879
1.0384
1.04769
1.05668
1.06539
1.07383
1.08202
1.08997
1.09768
1.10517
1.11245
1.11954
1.12644
1.13315
1.13969
1.14607
1.1523
1.15838
1.16431
1.17011
1.17578
1.18132
1.18675
1.19207
1.19727
1.20237
1.20736
1.21227
1.21708
1.2218
1.22644
1.23099
1.23546
1.23986
1.24418
1.24843
1.25261
1.25672
1.26077
1.26475
1.26867
1.27252
1.27631
1.28004
1.28371
1.28732
1.29087
1.29436
1.2978
1.30117
1.3045
1.30776
1.31097
1.31412
1.31722
1.32026
1.32324
1.32617
1.32905
1.33186
1.33462
1.33731
1.33995
1.34253
1.34505
1.34751
1.3499
1.35224
1.35451
1.35671
1.35884
1.36089
1.36287
1.36477
1.36657
1.36826
1.36984
1.37129
1.37259
1.37371
1.37463
1.37524
1.37568
1.37534
1.37567
1.37265
1.37402
1.36524
1.36801
1.35175
1.35286
1.3327
1.31216
1.29622
1.20773
0.000737927
0.000243158
0.00010431
8.2912e-05
8.3924e-05
9.13017e-05
0.000101288
0.000112934
0.00012588
0.000139505
0.000153275
0.000166755
0.000180167
0.000195267
0.000215267
0.000245369
0.000287973
0.000337396
0.000394386
0.000459495
0.000533433
0.000616942
0.000710218
0.00081436
0.000930612
0.00105964
0.00120294
0.00136237
0.00154006
0.00173857
0.00196069
0.00220971
0.00248958
0.00280459
0.00315995
0.00356102
0.00401283
0.00452155
0.00509338
0.00573463
0.00645193
0.00725195
0.00814108
0.00912562
0.0102117
0.0114049
0.0127104
0.0141324
0.0156748
0.0173407
0.0191324
0.021051
0.023097
0.0252695
0.0275674
0.0299885
0.0325297
0.0351868
0.0379553
0.0408302
0.043806
0.0468763
0.0500347
0.0532747
0.0565892
0.0599723
0.0634145
0.0669146
0.0704596
0.0740388
0.0776914
0.0812835
0.0850228
0.0889695
0.0930619
0.0972628
0.10154
0.105869
0.110231
0.114616
0.119001
0.123385
0.127746
0.132093
0.136397
0.140658
0.144874
0.149044
0.15317
0.157251
0.16129
0.165293
0.169261
0.173193
0.177092
0.18096
0.1848
0.188614
0.192405
0.196171
0.199917
0.203647
0.207362
0.211066
0.214758
0.218441
0.222119
0.225795
0.229471
0.233146
0.236822
0.240502
0.24419
0.247888
0.251597
0.25532
0.259056
0.262808
0.26658
0.270373
0.274189
0.27803
0.281896
0.285789
0.28971
0.293661
0.297643
0.301659
0.30571
0.309796
0.31392
0.318081
0.322281
0.326521
0.330802
0.335125
0.339492
0.343904
0.348362
0.352864
0.357413
0.362008
0.366653
0.371346
0.376089
0.380883
0.385727
0.390622
0.39557
0.400571
0.405626
0.410735
0.415898
0.421117
0.426391
0.431721
0.437108
0.442552
0.448054
0.453616
0.459238
0.46492
0.470666
0.476464
0.482352
0.488232
0.494363
0.500131
0.506909
0.511944
0.520202
0.524125
0.53382
0.537203
0.549138
0.551283
0.567335
0.568558
0.584929
0.638834
0.00274564
0.000701495
0.000177975
9.23125e-05
8.14305e-05
8.02787e-05
8.14153e-05
8.34318e-05
8.58592e-05
8.90028e-05
9.29761e-05
9.80344e-05
0.000104329
0.000112084
0.000121498
0.000132945
0.000146281
0.000160975
0.0001772
0.000194731
0.000213158
0.000232012
0.000250747
0.00026912
0.000286504
0.000302178
0.000315885
0.000327332
0.000336381
0.00034286
0.000346666
0.000347906
0.00034699
0.000343273
0.000336082
0.000326948
0.000316824
0.000306588
0.000296618
0.000287127
0.000278644
0.000271756
0.000266822
0.000264053
0.000263597
0.000265822
0.000270979
0.000279212
0.000290703
0.000305652
0.000324211
0.000346521
0.000372777
0.000403123
0.000437694
0.000476653
0.000520132
0.000568294
0.000621276
0.000679207
0.000742228
0.00081043
0.000883891
0.000962723
0.00104694
0.00113661
0.00123167
0.00133236
0.00143819
0.00154976
0.00166657
0.00178837
0.00191558
0.00204877
0.0021887
0.00233576
0.00249045
0.00265098
0.00282174
0.00299368
0.00318289
0.00336428
0.00356956
0.00376108
0.00398041
0.0042262
0.004495
0.00478381
0.00508854
0.00540788
0.00573853
0.00607826
0.00642554
0.00677909
0.00713819
0.00750196
0.00786969
0.0082409
0.00861494
0.00899125
0.00936965
0.0097501
0.0101326
0.010517
0.0109032
0.0112914
0.0116818
0.0120746
0.0124699
0.0128676
0.013268
0.0136715
0.0140784
0.0144893
0.0149043
0.0153237
0.0157477
0.0161768
0.0166116
0.0170526
0.0175
0.0179542
0.0184156
0.0188844
0.0193611
0.0198462
0.0203402
0.0208434
0.0213564
0.0218794
0.0224131
0.0229578
0.0235141
0.0240822
0.0246626
0.0252558
0.0258625
0.0264831
0.0271181
0.027768
0.0284332
0.0291141
0.0298113
0.0305255
0.0312572
0.032007
0.0327753
0.0335629
0.0343703
0.0351981
0.0360472
0.0369184
0.0378122
0.0387295
0.0396711
0.0406379
0.0416307
0.0426508
0.0436993
0.0447782
0.045889
0.0470331
0.0482154
0.0494293
0.0507054
0.0519734
0.053426
0.0546378
0.0565271
0.0574083
0.0600272
0.0608269
0.064091
0.0646956
0.0696544
0.0699309
0.0771609
0.0783091
0.085432
0.113013
0.00744392
0.00171028
0.000349464
0.000123145
9.3393e-05
9.08795e-05
9.30169e-05
9.68109e-05
0.000101546
0.000107498
0.000115056
0.00012435
0.000135456
0.000148791
0.000163987
0.000181318
0.000200938
0.000221958
0.000244113
0.000267241
0.000290844
0.000313921
0.000335466
0.000355084
0.000372202
0.000385918
0.000395923
0.000401695
0.00040349
0.000401117
0.000394274
0.000384228
0.000371574
0.000356787
0.000340303
0.000322602
0.000303818
0.000284256
0.000264218
0.000244054
0.000224137
0.000204757
0.000186091
0.000168279
0.000151467
0.000135745
0.000121167
0.000107762
9.54943e-05
8.43556e-05
7.43789e-05
6.54642e-05
5.74037e-05
5.0208e-05
4.38775e-05
3.8379e-05
3.36275e-05
2.95823e-05
2.61685e-05
2.33054e-05
2.09814e-05
1.91065e-05
1.75943e-05
1.6521e-05
1.57637e-05
1.51731e-05
1.4947e-05
1.49379e-05
1.51146e-05
1.54692e-05
1.5978e-05
1.66302e-05
1.74135e-05
1.83158e-05
1.93338e-05
2.04657e-05
2.17131e-05
2.30554e-05
2.45423e-05
2.60756e-05
2.7825e-05
2.95682e-05
3.15049e-05
3.35519e-05
3.56357e-05
3.7932e-05
4.05719e-05
4.31017e-05
4.65792e-05
4.94995e-05
5.31346e-05
5.84352e-05
6.50534e-05
7.27421e-05
8.12852e-05
9.05165e-05
0.00010032
0.000110611
0.000121314
0.000132363
0.000143716
0.00015534
0.000167207
0.000179293
0.000191576
0.000204042
0.000216681
0.000229483
0.000242437
0.000255534
0.000268771
0.000282156
0.000295699
0.000309405
0.000323276
0.000337313
0.000351529
0.000365943
0.000380576
0.000395448
0.000410567
0.000425944
0.000441592
0.000457531
0.000473783
0.000490375
0.000507333
0.000524673
0.000542415
0.000560581
0.000579198
0.000598297
0.000617908
0.000638052
0.000658758
0.000680055
0.000701978
0.000724562
0.000747842
0.000771849
0.000796617
0.00082218
0.000848577
0.000875852
0.000904049
0.000933207
0.000963369
0.000994592
0.00102693
0.00106045
0.00109521
0.00113126
0.00116869
0.00120756
0.00124797
0.00129001
0.00133378
0.00137943
0.00142709
0.00147696
0.0015293
0.00158421
0.00164256
0.00170303
0.00177083
0.00183462
0.00192367
0.00197709
0.00211787
0.002148
0.00235047
0.00238505
0.00269286
0.00269636
0.00323986
0.00322093
0.00414901
0.00432581
0.00532664
0.00995522
0.0159903
0.00336776
0.000616559
0.000172704
0.000117897
0.000113881
0.000118751
0.00012652
0.00013618
0.000147925
0.000162144
0.000179347
0.000199643
0.000222964
0.000249577
0.000279099
0.000311706
0.000346412
0.000381767
0.000417241
0.000451365
0.000483396
0.000511335
0.000534581
0.000552641
0.00056417
0.000569605
0.000568955
0.000562222
0.000550492
0.000534043
0.000513481
0.000489572
0.000463061
0.00043472
0.000405325
0.000375522
0.000345788
0.000316558
0.000288249
0.000261181
0.000235515
0.000211351
0.000188793
0.000167923
0.000148772
0.000131272
0.000115345
0.000100966
8.80621e-05
7.64921e-05
6.61831e-05
5.71145e-05
4.91637e-05
4.21972e-05
3.61067e-05
3.07972e-05
2.6185e-05
2.2194e-05
1.87534e-05
1.57991e-05
1.32714e-05
1.11157e-05
9.28543e-06
7.73608e-06
6.42892e-06
5.33187e-06
4.4127e-06
3.64442e-06
3.00544e-06
2.47633e-06
2.04002e-06
1.68171e-06
1.38872e-06
1.15038e-06
9.57404e-07
8.0233e-07
6.78054e-07
5.8021e-07
5.02511e-07
4.43954e-07
3.97652e-07
3.64773e-07
3.41276e-07
3.22342e-07
3.13265e-07
3.11774e-07
3.10927e-07
3.17739e-07
3.27157e-07
3.34321e-07
3.55362e-07
3.79227e-07
4.04221e-07
4.60649e-07
5.43456e-07
6.47643e-07
7.69843e-07
9.07608e-07
1.05911e-06
1.22301e-06
1.39823e-06
1.58388e-06
1.77911e-06
1.98318e-06
2.19537e-06
2.41503e-06
2.64149e-06
2.87414e-06
3.11247e-06
3.3561e-06
3.60481e-06
3.85836e-06
4.11645e-06
4.37874e-06
4.64504e-06
4.91542e-06
5.19011e-06
5.46933e-06
5.75323e-06
6.04168e-06
6.33468e-06
6.63241e-06
6.93528e-06
7.24381e-06
7.5585e-06
7.87966e-06
8.20745e-06
8.54214e-06
8.88414e-06
9.23412e-06
9.59286e-06
9.96098e-06
1.03389e-05
1.07271e-05
1.11262e-05
1.15369e-05
1.19599e-05
1.23963e-05
1.28468e-05
1.33123e-05
1.37934e-05
1.42909e-05
1.48057e-05
1.53389e-05
1.58914e-05
1.64644e-05
1.70595e-05
1.76783e-05
1.83218e-05
1.89918e-05
1.96897e-05
2.04179e-05
2.11784e-05
2.19737e-05
2.28074e-05
2.36825e-05
2.46034e-05
2.5575e-05
2.66042e-05
2.77012e-05
2.88679e-05
3.01449e-05
3.14663e-05
3.30734e-05
3.44466e-05
3.68987e-05
3.77735e-05
4.22254e-05
4.25801e-05
4.91682e-05
4.97206e-05
6.14054e-05
6.1091e-05
8.4085e-05
8.44642e-05
0.000128032
0.000145121
0.000205556
0.000592352
0.0291969
0.00553552
0.000950612
0.000237414
0.000156628
0.000152754
0.000163828
0.000180323
0.000200619
0.00022501
0.000254655
0.000289937
0.000331094
0.000378213
0.000431989
0.000491329
0.000555388
0.000622274
0.000688358
0.000751294
0.000806823
0.000854218
0.000890662
0.000912853
0.000922307
0.000920095
0.000905332
0.000880669
0.000847565
0.000807802
0.000763222
0.000715574
0.000666254
0.000616293
0.000566577
0.000517937
0.000471066
0.000426426
0.000384289
0.000344826
0.000308142
0.000274293
0.000243271
0.000215014
0.000189399
0.000166267
0.00014547
0.000126873
0.000110318
9.56315e-05
8.26483e-05
7.12075e-05
6.11637e-05
5.23815e-05
4.47263e-05
3.80731e-05
3.2312e-05
2.7344e-05
2.3075e-05
1.94171e-05
1.62916e-05
1.36299e-05
1.13714e-05
9.46075e-06
7.84952e-06
6.4947e-06
5.35841e-06
4.4091e-06
3.61878e-06
2.96254e-06
2.41906e-06
1.97016e-06
1.60041e-06
1.29677e-06
1.04812e-06
8.45073e-07
6.79687e-07
5.45338e-07
4.36531e-07
3.48647e-07
2.77846e-07
2.20941e-07
1.75338e-07
1.38899e-07
1.09851e-07
8.67551e-08
6.84733e-08
5.39938e-08
4.26019e-08
3.36476e-08
2.66072e-08
2.11525e-08
1.68883e-08
1.36301e-08
1.11535e-08
9.31333e-09
8.25207e-09
7.8929e-09
8.01242e-09
8.65737e-09
9.69251e-09
1.10746e-08
1.27663e-08
1.47367e-08
1.69602e-08
1.94152e-08
2.20827e-08
2.4945e-08
2.79863e-08
3.11927e-08
3.45526e-08
3.80561e-08
4.16937e-08
4.54545e-08
4.93275e-08
5.33048e-08
5.73821e-08
6.15584e-08
6.58318e-08
7.02002e-08
7.46568e-08
7.91972e-08
8.38209e-08
8.85328e-08
9.3339e-08
9.82447e-08
1.03252e-07
1.08358e-07
1.13566e-07
1.18879e-07
1.2431e-07
1.29871e-07
1.35571e-07
1.41416e-07
1.47412e-07
1.53565e-07
1.59886e-07
1.66389e-07
1.73091e-07
1.80009e-07
1.87156e-07
1.94542e-07
2.02175e-07
2.10069e-07
2.18242e-07
2.26712e-07
2.35503e-07
2.44644e-07
2.54161e-07
2.64071e-07
2.74406e-07
2.85187e-07
2.96461e-07
3.08278e-07
3.2068e-07
3.33747e-07
3.47536e-07
3.62135e-07
3.77661e-07
3.94252e-07
4.12154e-07
4.31379e-07
4.52999e-07
4.75171e-07
5.0437e-07
5.26673e-07
5.76525e-07
5.86406e-07
6.81316e-07
6.8908e-07
8.27482e-07
8.46919e-07
1.11586e-06
1.14146e-06
1.71597e-06
1.84509e-06
3.10149e-06
4.03134e-06
6.4991e-06
2.95563e-05
0.0486228
0.00808346
0.00132217
0.000322446
0.000222153
0.00022179
0.000250455
0.000286123
0.000330624
0.000384934
0.000452164
0.000533047
0.000629171
0.000742001
0.000872052
0.00101785
0.00117583
0.00133654
0.00148859
0.00162514
0.00173244
0.00180554
0.001839
0.001842
0.00180545
0.00174037
0.00165199
0.00154789
0.00143479
0.00131841
0.00120273
0.00109053
0.000983673
0.000883253
0.000789907
0.000703903
0.000625189
0.000553506
0.000488541
0.000429985
0.000377483
0.000330587
0.000288802
0.000251661
0.000218757
0.00018972
0.000164173
0.00014174
0.000122075
0.000104878
8.98915e-05
7.68711e-05
6.5583e-05
5.5812e-05
4.7375e-05
4.01149e-05
3.38876e-05
2.85575e-05
2.40031e-05
2.01216e-05
1.68252e-05
1.40347e-05
1.16777e-05
9.69125e-06
8.02157e-06
6.62271e-06
5.45428e-06
4.48074e-06
3.67155e-06
3.00082e-06
2.44648e-06
1.9896e-06
1.61405e-06
1.30617e-06
1.05444e-06
8.49161e-07
6.8218e-07
5.46712e-07
4.37112e-07
3.4868e-07
2.775e-07
2.20332e-07
1.74532e-07
1.37938e-07
1.08779e-07
8.55973e-08
6.72074e-08
5.26509e-08
4.11559e-08
3.21037e-08
2.49902e-08
1.94129e-08
1.5049e-08
1.16423e-08
8.98936e-09
6.92846e-09
5.33074e-09
4.09597e-09
3.14579e-09
2.41799e-09
1.86322e-09
1.44309e-09
1.1278e-09
8.94135e-10
7.24051e-10
6.03591e-10
5.21786e-10
4.70215e-10
4.42239e-10
4.32209e-10
4.37144e-10
4.5319e-10
4.78212e-10
5.10466e-10
5.48491e-10
5.91219e-10
6.37883e-10
6.8793e-10
7.4093e-10
7.96564e-10
8.5452e-10
9.1455e-10
9.76491e-10
1.04029e-09
1.10592e-09
1.17337e-09
1.24259e-09
1.31351e-09
1.38607e-09
1.4603e-09
1.53632e-09
1.61429e-09
1.69432e-09
1.77646e-09
1.86075e-09
1.94725e-09
2.03609e-09
2.12745e-09
2.22163e-09
2.31892e-09
2.4195e-09
2.52347e-09
2.63091e-09
2.74199e-09
2.85697e-09
2.97616e-09
3.09998e-09
3.22893e-09
3.36335e-09
3.50345e-09
3.64978e-09
3.80262e-09
3.96275e-09
4.13113e-09
4.30846e-09
4.49609e-09
4.69507e-09
4.90685e-09
5.13361e-09
5.37779e-09
5.64401e-09
5.93231e-09
6.26425e-09
6.60161e-09
7.07741e-09
7.4066e-09
8.2829e-09
8.42025e-09
1.00515e-08
1.0306e-08
1.27581e-08
1.34213e-08
1.84598e-08
2.01048e-08
3.1908e-08
3.84207e-08
6.98862e-08
1.07433e-07
2.02067e-07
1.41622e-06
0.0795906
0.0109653
0.00171476
0.000444531
0.000338172
0.000355387
0.000424835
0.000506428
0.000613427
0.000749806
0.000925265
0.00114558
0.00141999
0.00175476
0.00214646
0.00258651
0.00305974
0.00352413
0.00393383
0.00428253
0.0045016
0.00460163
0.00459684
0.00444796
0.00420457
0.00389213
0.00352927
0.00314947
0.0027752
0.0024242
0.00210547
0.00182231
0.00157442
0.00135906
0.00117253
0.0010111
0.000871467
0.000750715
0.000646304
0.000556017
0.000477941
0.000410444
0.00035214
0.000301833
0.000258464
0.000221084
0.000188867
0.000161117
0.000137251
0.000116758
9.91786e-05
8.41031e-05
7.11857e-05
6.01403e-05
5.07187e-05
4.26957e-05
3.58689e-05
3.00669e-05
2.51482e-05
2.09913e-05
1.74859e-05
1.45335e-05
1.20507e-05
9.96835e-06
8.22759e-06
6.77604e-06
5.56768e-06
4.56367e-06
3.73173e-06
3.04443e-06
2.47808e-06
2.01236e-06
1.63026e-06
1.3176e-06
1.06246e-06
8.54736e-07
6.86013e-07
5.49316e-07
4.38868e-07
3.49845e-07
2.78244e-07
2.20784e-07
1.7479e-07
1.38078e-07
1.08844e-07
8.56133e-08
6.71895e-08
5.2613e-08
4.11106e-08
3.2058e-08
2.49465e-08
1.93719e-08
1.5011e-08
1.16073e-08
8.95792e-09
6.9001e-09
5.30435e-09
4.06924e-09
3.11574e-09
2.3814e-09
1.81686e-09
1.38365e-09
1.05191e-09
7.98383e-10
6.05051e-10
4.57972e-10
3.46342e-10
2.61793e-10
1.97885e-10
1.49694e-10
1.13463e-10
8.63105e-11
6.60486e-11
5.10042e-11
3.99022e-11
3.17741e-11
2.58857e-11
2.16815e-11
1.87436e-11
1.67607e-11
1.54925e-11
1.47886e-11
1.44219e-11
1.44507e-11
1.4672e-11
1.50689e-11
1.56054e-11
1.62509e-11
1.69832e-11
1.77861e-11
1.86487e-11
1.95642e-11
2.05283e-11
2.15376e-11
2.25893e-11
2.36809e-11
2.48118e-11
2.59829e-11
2.71976e-11
2.84593e-11
2.97696e-11
3.11289e-11
3.25372e-11
3.39962e-11
3.55094e-11
3.70815e-11
3.87187e-11
4.04277e-11
4.22128e-11
4.40764e-11
4.60268e-11
4.80685e-11
5.02117e-11
5.2473e-11
5.48624e-11
5.7401e-11
6.01058e-11
6.29997e-11
6.61179e-11
6.95018e-11
7.32259e-11
7.7302e-11
8.20847e-11
8.69746e-11
9.41741e-11
9.91039e-11
1.13008e-10
1.16031e-10
1.41918e-10
1.5023e-10
1.90276e-10
2.17311e-10
3.09333e-10
3.92579e-10
6.59014e-10
1.01784e-09
2.06428e-09
4.28065e-09
1.01433e-08
7.88061e-08
0.118811
0.0135871
0.00197637
0.000620797
0.000543057
0.000626287
0.000796229
0.00100428
0.00130142
0.00170483
0.00225379
0.00299007
0.00393842
0.00510183
0.00642338
0.00783614
0.00925712
0.0106104
0.0116981
0.0125967
0.0130025
0.0130668
0.0127998
0.01203
0.0110575
0.00989993
0.00861667
0.0073328
0.00612627
0.00505294
0.00413609
0.00337468
0.0027551
0.00225693
0.00185722
0.0015355
0.00127502
0.00106253
0.000887895
0.000743507
0.00062362
0.000523776
0.000440377
0.000370505
0.00031183
0.000262495
0.000220987
0.000186034
0.000156567
0.000131695
0.000110692
9.29613e-05
7.80016e-05
6.5384e-05
5.4741e-05
4.57646e-05
3.82009e-05
3.18389e-05
2.64967e-05
2.20148e-05
1.82569e-05
1.511e-05
1.24812e-05
1.02908e-05
8.46878e-06
6.95483e-06
5.69884e-06
4.65952e-06
3.80194e-06
3.09585e-06
2.5154e-06
2.03913e-06
1.64933e-06
1.33116e-06
1.07206e-06
8.6147e-07
6.9068e-07
5.52522e-07
4.41048e-07
3.51299e-07
2.79186e-07
2.21381e-07
1.7516e-07
1.38299e-07
1.08964e-07
8.56625e-08
6.71971e-08
5.25976e-08
4.10852e-08
3.20288e-08
2.49151e-08
1.93402e-08
1.49817e-08
1.15811e-08
8.93546e-09
6.88117e-09
5.28808e-09
4.05555e-09
3.10443e-09
2.37199e-09
1.80897e-09
1.37704e-09
1.04637e-09
7.93698e-10
6.01e-10
4.54364e-10
3.43004e-10
2.5857e-10
1.9464e-10
1.46308e-10
1.09828e-10
8.23434e-11
6.1676e-11
4.6162e-11
3.45337e-11
2.58284e-11
1.93166e-11
1.44484e-11
1.0812e-11
8.09977e-12
6.08072e-12
4.5804e-12
3.46594e-12
2.63852e-12
2.0237e-12
1.56758e-12
1.2304e-12
9.8235e-13
8.00792e-13
6.68494e-13
5.72605e-13
5.03758e-13
4.55243e-13
4.22098e-13
4.00846e-13
3.86425e-13
3.81716e-13
3.81122e-13
3.84077e-13
3.90301e-13
3.99149e-13
4.1015e-13
4.22953e-13
4.3735e-13
4.53209e-13
4.70424e-13
4.88929e-13
5.0867e-13
5.2965e-13
5.51883e-13
5.75479e-13
6.00467e-13
6.26888e-13
6.54937e-13
6.84736e-13
7.16584e-13
7.50775e-13
7.87622e-13
8.27757e-13
8.71921e-13
9.21239e-13
9.77062e-13
1.04366e-12
1.11829e-12
1.22427e-12
1.32939e-12
1.53266e-12
1.73333e-12
2.09779e-12
2.79498e-12
3.61181e-12
6.07867e-12
1.0418e-11
2.25943e-11
5.64594e-11
1.36666e-10
4.09547e-10
1.0977e-09
2.88827e-09
1.24974e-08
0.202026
0.018833
0.00279372
0.00105002
0.000954219
0.00122881
0.00166379
0.00228422
0.00321265
0.00458107
0.00654314
0.00920936
0.0125869
0.0163968
0.0203459
0.0241861
0.0278097
0.0309683
0.033445
0.0354299
0.0362208
0.0355726
0.0347269
0.0319364
0.0290926
0.0256777
0.0219171
0.0181332
0.0146084
0.0115174
0.00893882
0.0068711
0.00526464
0.00405042
0.00314152
0.00246093
0.0019481
0.00155733
0.0012555
0.00101915
0.000831834
0.000681871
0.000560799
0.000462418
0.000382121
0.000316355
0.00026229
0.000217679
0.000180767
0.000150184
0.000124823
0.000103764
8.6246e-05
7.16536e-05
5.9495e-05
4.93684e-05
4.09363e-05
3.39133e-05
2.80622e-05
2.31892e-05
1.91355e-05
1.57684e-05
1.29753e-05
1.06599e-05
8.74207e-06
7.15576e-06
5.84657e-06
4.76849e-06
3.88215e-06
3.1543e-06
2.55754e-06
2.06938e-06
1.67107e-06
1.34677e-06
1.08316e-06
8.69272e-07
6.96117e-07
5.5629e-07
4.43632e-07
3.5304e-07
2.80337e-07
2.22128e-07
1.75637e-07
1.38592e-07
1.09129e-07
8.57444e-08
6.72287e-08
5.25996e-08
4.10714e-08
3.20052e-08
2.48868e-08
1.93109e-08
1.49532e-08
1.15548e-08
8.9121e-09
6.86134e-09
5.2715e-09
4.04165e-09
3.09282e-09
2.36231e-09
1.80094e-09
1.37049e-09
1.04108e-09
7.89436e-10
5.97564e-10
4.51599e-10
3.40783e-10
2.56786e-10
1.93206e-10
1.45152e-10
1.08893e-10
8.15874e-11
6.10644e-11
4.56644e-11
3.41242e-11
2.54851e-11
1.90226e-11
1.41914e-11
1.05834e-11
7.89283e-12
5.88949e-12
4.39925e-12
3.2903e-12
2.46393e-12
1.84728e-12
1.38706e-12
1.04397e-12
7.88512e-13
5.98215e-13
4.56045e-13
3.49358e-13
2.68994e-13
2.08398e-13
1.62712e-13
1.28213e-13
1.02034e-13
8.20473e-14
6.67079e-14
5.48788e-14
4.57194e-14
3.85918e-14
3.30307e-14
2.86895e-14
2.53119e-14
2.26849e-14
2.06269e-14
1.90031e-14
1.77079e-14
1.66843e-14
1.58953e-14
1.52996e-14
1.48395e-14
1.4529e-14
1.43206e-14
1.41877e-14
1.41276e-14
1.41356e-14
1.42211e-14
1.44072e-14
1.47059e-14
1.51615e-14
1.59251e-14
1.70664e-14
1.90493e-14
2.19819e-14
2.75407e-14
3.73671e-14
6.16635e-14
1.13122e-13
2.65656e-13
6.18902e-13
1.75972e-12
4.76095e-12
1.33276e-11
4.03089e-11
1.05601e-10
3.16745e-10
8.54633e-10
2.22218e-09
6.41864e-09
0.280029
0.0218816
0.00284783
0.00149348
0.00178001
0.00257805
0.00380426
0.00573936
0.00891595
0.0135998
0.0202816
0.0287812
0.0381899
0.0476557
0.0562059
0.0643856
0.0710373
0.0765442
0.0815634
0.085077
0.0863084
0.0836619
0.0817854
0.073978
0.0676378
0.0599274
0.0515804
0.0426264
0.0340773
0.0264277
0.019939
0.0147152
0.0106967
0.00775488
0.00565282
0.00416074
0.00310473
0.00235386
0.00181309
0.00141643
0.00111956
0.000893183
0.000717758
0.00058001
0.000470764
0.000383441
0.000313174
0.000256326
0.000210156
0.000172546
0.00014182
0.000116647
9.59845e-05
7.90102e-05
6.5057e-05
5.35722e-05
4.4103e-05
3.62874e-05
2.98374e-05
2.45175e-05
2.01311e-05
1.65135e-05
1.35295e-05
1.10695e-05
9.04401e-06
7.37885e-06
6.01164e-06
4.8901e-06
3.97088e-06
3.21852e-06
2.60392e-06
2.10295e-06
1.69534e-06
1.36418e-06
1.09551e-06
8.77958e-07
7.02202e-07
5.60532e-07
4.46558e-07
3.55027e-07
2.81667e-07
2.23005e-07
1.76203e-07
1.38943e-07
1.09336e-07
8.58562e-08
6.7281e-08
5.2616e-08
4.10655e-08
3.19851e-08
2.48597e-08
1.92822e-08
1.49256e-08
1.15301e-08
8.88984e-09
6.84065e-09
5.2534e-09
4.02669e-09
3.08069e-09
2.35235e-09
1.79266e-09
1.36365e-09
1.03551e-09
7.84934e-10
5.93971e-10
4.4874e-10
3.3849e-10
2.54927e-10
1.91698e-10
1.43937e-10
1.07926e-10
8.08225e-11
6.04587e-11
4.51815e-11
3.37366e-11
2.51728e-11
1.8771e-11
1.39894e-11
1.04222e-11
7.76519e-12
5.78904e-12
4.32027e-12
3.22793e-12
2.41437e-12
1.80784e-12
1.35578e-12
1.01926e-12
7.68929e-13
5.82445e-13
4.42986e-13
3.3823e-13
2.59333e-13
1.99925e-13
1.55212e-13
1.21479e-13
9.58611e-14
7.62598e-14
6.11593e-14
4.9462e-14
4.03614e-14
3.32357e-14
2.76363e-14
2.32226e-14
1.97399e-14
1.69756e-14
1.47457e-14
1.29205e-14
1.14053e-14
1.01483e-14
9.11418e-15
8.26223e-15
7.55051e-15
6.93481e-15
6.39665e-15
5.92032e-15
5.48909e-15
5.1046e-15
4.80493e-15
4.51941e-15
4.27255e-15
4.24736e-15
4.32251e-15
4.60766e-15
5.31379e-15
6.88099e-15
1.0387e-14
1.83751e-14
3.86137e-14
8.86786e-14
2.29584e-13
6.00566e-13
1.65199e-12
4.69522e-12
1.25075e-11
3.74028e-11
9.7683e-11
2.72135e-10
7.46637e-10
1.83996e-09
4.95108e-09
0.491608
0.0328565
0.00426451
0.00304981
0.00354488
0.00572773
0.00934004
0.0152568
0.0244353
0.0382494
0.0560521
0.0768922
0.0996278
0.113727
0.126051
0.135537
0.143783
0.151726
0.1608
0.166519
0.168552
0.163039
0.156756
0.13948
0.126075
0.111929
0.0994868
0.0847128
0.0694784
0.0551302
0.0420267
0.0306057
0.0216155
0.0150811
0.0105204
0.00734205
0.00515883
0.00367706
0.00267312
0.00198592
0.00150594
0.0011621
0.000909299
0.000719044
0.00057318
0.000459776
0.000370622
0.000299875
0.000243303
0.000197794
0.000161024
0.000131239
0.000107078
8.74266e-05
7.14158e-05
5.83538e-05
4.76864e-05
3.89702e-05
3.18471e-05
2.60211e-05
2.12506e-05
1.7342e-05
1.41407e-05
1.15209e-05
9.37793e-06
7.62547e-06
6.19269e-06
5.02205e-06
4.06669e-06
3.28811e-06
2.65454e-06
2.13966e-06
1.72175e-06
1.38299e-06
1.10883e-06
8.87365e-07
7.08829e-07
5.6517e-07
4.49763e-07
3.57208e-07
2.8314e-07
2.23981e-07
1.76842e-07
1.39348e-07
1.09576e-07
8.5995e-08
6.73496e-08
5.26412e-08
4.10666e-08
3.1968e-08
2.48334e-08
1.92535e-08
1.48976e-08
1.15057e-08
8.86951e-09
6.82215e-09
5.23567e-09
4.01082e-09
3.06729e-09
2.34128e-09
1.78373e-09
1.35653e-09
1.02976e-09
7.80253e-10
5.90164e-10
4.45661e-10
3.35997e-10
2.52902e-10
1.90051e-10
1.42609e-10
1.06872e-10
7.99982e-11
5.98137e-11
4.46702e-11
3.33249e-11
2.48393e-11