/*--------------------------------*- C++ -*----------------------------------*\
| =========                 |                                                 |
| \\      /  F ield         | OpenFOAM: The Open Source CFD Toolbox           |
|  \\    /   O peration     | Version:  2.1.x                                 |
|   \\  /    A nd           | Web:      www.OpenFOAM.org                      |
|    \\/     M anipulation  |                                                 |
\*---------------------------------------------------------------------------*/
FoamFile
{
    version     2.0;
    format      ascii;
    class       volScalarField;
    location    "0.004";
    object      nuSgs;
}
// * * * * * * * * * * * * * * * * * * * * * * * * * * * * * * * * * * * * * //

dimensions      [0 2 -1 0 0 0 0];

internalField   nonuniform List<scalar> 
12225
(
0.000196314
0.000193059
0.000165692
0.00013766
0.000119044
0.000109602
0.000102999
9.572e-05
9.03565e-05
8.6079e-05
8.50902e-05
8.3151e-05
8.05294e-05
7.73087e-05
7.66164e-05
7.67297e-05
7.80112e-05
7.7607e-05
0.000107062
0.000151247
0.000153243
0.000146261
0.000134192
0.000125113
0.00011843
0.000109738
0.000103371
9.70853e-05
9.27159e-05
8.95756e-05
8.60461e-05
8.20651e-05
7.88757e-05
7.58923e-05
7.28114e-05
7.09604e-05
3.25315e-05
7.92206e-05
9.41147e-05
0.000106342
0.000105919
0.000101795
9.77554e-05
9.55775e-05
9.32563e-05
8.88242e-05
8.08774e-05
7.72245e-05
7.54455e-05
7.36055e-05
7.10539e-05
6.63638e-05
6.06022e-05
5.70703e-05
7.95447e-06
2.87923e-05
4.16929e-05
5.63169e-05
6.34611e-05
6.21859e-05
6.03583e-05
6.10347e-05
6.42397e-05
6.27931e-05
5.84563e-05
5.40939e-05
5.30517e-05
5.24768e-05
5.09678e-05
4.86057e-05
4.42582e-05
4.04665e-05
1.70529e-06
8.28736e-06
1.38455e-05
2.08109e-05
2.99305e-05
2.99167e-05
2.84238e-05
2.85755e-05
3.27373e-05
3.41083e-05
3.28589e-05
2.9896e-05
2.8899e-05
2.84822e-05
2.77484e-05
2.68141e-05
2.57093e-05
2.43715e-05
5.59021e-07
2.06722e-06
3.6583e-06
6.40067e-06
1.18468e-05
1.19531e-05
1.0497e-05
1.03234e-05
1.31439e-05
1.52486e-05
1.48625e-05
1.35956e-05
1.269e-05
1.24045e-05
1.2415e-05
1.24408e-05
1.22644e-05
1.20219e-05
4.30695e-07
6.29338e-07
9.69573e-07
1.88721e-06
4.06908e-06
4.1834e-06
3.5031e-06
3.29396e-06
4.30497e-06
5.3708e-06
5.28442e-06
4.9107e-06
4.42373e-06
4.27076e-06
4.24642e-06
4.42605e-06
4.46485e-06
4.45455e-06
3.81061e-07
4.51991e-07
4.7015e-07
5.98676e-07
1.16595e-06
1.29846e-06
1.18597e-06
1.12201e-06
1.27462e-06
1.75204e-06
1.85924e-06
1.8067e-06
1.64216e-06
1.49703e-06
1.44865e-06
1.44316e-06
1.44595e-06
1.47297e-06
4.06472e-07
4.46666e-07
4.57033e-07
4.63024e-07
5.31436e-07
6.59758e-07
6.64774e-07
6.5625e-07
6.83256e-07
8.12316e-07
1.07987e-06
1.20352e-06
1.22562e-06
1.21442e-06
1.19582e-06
1.16065e-06
1.11308e-06
1.12064e-06
4.62302e-07
4.83586e-07
4.83952e-07
5.16975e-07
6.1692e-07
6.34643e-07
6.38665e-07
6.28762e-07
6.0611e-07
5.94842e-07
6.01081e-07
5.99988e-07
5.97766e-07
6.02434e-07
6.23851e-07
7.03172e-07
7.29467e-07
7.47075e-07
4.643e-07
4.95688e-07
5.16388e-07
5.69193e-07
5.92435e-07
5.79912e-07
5.48961e-07
4.88737e-07
4.55848e-07
4.45169e-07
4.46765e-07
4.70259e-07
5.0202e-07
5.14553e-07
5.36491e-07
5.56035e-07
5.46268e-07
5.63566e-07
4.93864e-07
4.97537e-07
5.17911e-07
5.80236e-07
7.60581e-07
8.72964e-07
8.6319e-07
8.16328e-07
7.36238e-07
6.61346e-07
5.90224e-07
5.42318e-07
5.12702e-07
4.97343e-07
4.95398e-07
5.31159e-07
5.37569e-07
5.69179e-07
5.57125e-07
5.42356e-07
5.28692e-07
5.23773e-07
5.5317e-07
5.89067e-07
5.81613e-07
5.65778e-07
5.43803e-07
5.29657e-07
5.20954e-07
5.2075e-07
5.47744e-07
5.83039e-07
5.84813e-07
5.77881e-07
5.89799e-07
6.3513e-07
5.8694e-07
5.94218e-07
5.91351e-07
6.21243e-07
6.38399e-07
6.22307e-07
5.80657e-07
5.42334e-07
5.28164e-07
5.20679e-07
5.2249e-07
5.38779e-07
5.81593e-07
6.6933e-07
7.79207e-07
8.9215e-07
9.04471e-07
8.96372e-07
6.23653e-07
6.37702e-07
6.7414e-07
6.70292e-07
6.50696e-07
6.35088e-07
6.22573e-07
6.13878e-07
6.06348e-07
5.92846e-07
5.79081e-07
5.69224e-07
5.66711e-07
5.74436e-07
5.85907e-07
6.18623e-07
7.35582e-07
1.2567e-06
6.97426e-07
7.10027e-07
6.93642e-07
6.80243e-07
6.79327e-07
7.29505e-07
7.6979e-07
7.5947e-07
7.32592e-07
6.70856e-07
6.26201e-07
6.11406e-07
6.04478e-07
6.13154e-07
6.60251e-07
6.6737e-07
6.63996e-07
7.3023e-07
7.33253e-07
7.17378e-07
7.15864e-07
7.4766e-07
8.10293e-07
8.1631e-07
7.92003e-07
7.4157e-07
7.03106e-07
6.84304e-07
6.67478e-07
6.52614e-07
6.39833e-07
6.30083e-07
6.34147e-07
6.73743e-07
6.94765e-07
6.80096e-07
7.4761e-07
7.78153e-07
7.63373e-07
7.30969e-07
6.96085e-07
6.80262e-07
6.71428e-07
6.75655e-07
7.13183e-07
8.05353e-07
8.46586e-07
8.38015e-07
8.15144e-07
7.64938e-07
7.05924e-07
6.6944e-07
6.56672e-07
6.75105e-07
7.03315e-07
6.85201e-07
6.77665e-07
6.66028e-07
6.60191e-07
6.63173e-07
6.57081e-07
6.49689e-07
6.39516e-07
6.28652e-07
6.26541e-07
6.64901e-07
7.33203e-07
7.71337e-07
7.88498e-07
7.8249e-07
7.69217e-07
7.52893e-07
6.41672e-07
6.79052e-07
7.45663e-07
7.33502e-07
6.80958e-07
6.34867e-07
6.20735e-07
6.20268e-07
6.31392e-07
6.23975e-07
6.10111e-07
5.96011e-07
5.83713e-07
5.69901e-07
5.56977e-07
5.45773e-07
5.36863e-07
5.34719e-07
6.17102e-07
6.18168e-07
6.62797e-07
6.66633e-07
6.47944e-07
6.23523e-07
6.08306e-07
5.94437e-07
5.80702e-07
5.68655e-07
5.57646e-07
5.49193e-07
5.45993e-07
5.49817e-07
5.54606e-07
5.5148e-07
5.44582e-07
5.389e-07
5.72477e-07
5.85494e-07
6.36532e-07
6.56363e-07
6.44579e-07
6.29218e-07
6.06299e-07
5.82494e-07
5.69012e-07
5.62264e-07
5.69111e-07
5.89537e-07
6.06818e-07
6.2044e-07
6.25006e-07
6.19095e-07
6.13788e-07
6.12042e-07
5.3878e-07
5.72945e-07
5.93511e-07
5.88227e-07
5.88002e-07
6.05977e-07
6.24892e-07
6.57077e-07
7.26802e-07
9.01437e-07
1.06016e-06
1.12471e-06
1.1312e-06
1.11296e-06
1.09228e-06
1.07823e-06
1.08896e-06
1.14054e-06
5.28649e-07
5.99311e-07
6.2952e-07
7.12774e-07
9.14531e-07
1.25807e-06
1.47403e-06
1.71949e-06
2.14647e-06
2.63954e-06
2.94139e-06
3.06122e-06
3.05999e-06
3.02211e-06
3.00582e-06
3.0536e-06
3.27307e-06
3.74135e-06
4.96908e-07
6.32754e-07
1.14004e-06
2.01243e-06
3.24274e-06
4.42801e-06
5.30509e-06
6.57577e-06
7.98005e-06
9.07451e-06
9.63743e-06
9.78292e-06
9.70666e-06
9.61119e-06
9.6214e-06
9.86945e-06
1.07527e-05
1.15304e-05
5.52076e-07
2.33793e-06
5.3406e-06
9.11485e-06
1.29999e-05
1.62625e-05
1.92627e-05
2.20037e-05
2.41829e-05
2.55477e-05
2.59663e-05
2.57713e-05
2.53449e-05
2.49683e-05
2.48072e-05
2.51985e-05
2.5906e-05
2.6449e-05
2.20428e-06
1.146e-05
2.31977e-05
3.44972e-05
4.17571e-05
4.75072e-05
5.16487e-05
5.39787e-05
5.49617e-05
5.50281e-05
5.42607e-05
5.32649e-05
5.22049e-05
5.12516e-05
5.04171e-05
4.95548e-05
4.85458e-05
4.74495e-05
1.37035e-05
4.6287e-05
7.78269e-05
9.03792e-05
9.75226e-05
0.000101732
0.000102467
0.000100436
9.79343e-05
9.47211e-05
9.11543e-05
8.80586e-05
8.49115e-05
8.20963e-05
7.89848e-05
7.6412e-05
7.33371e-05
7.0879e-05
6.57054e-05
0.00014447
0.000165738
0.000164772
0.000159168
0.000150459
0.000141377
0.000132819
0.000124877
0.000117529
0.000110938
0.000104918
9.93394e-05
9.41827e-05
8.92603e-05
8.49241e-05
8.03851e-05
7.70991e-05
0.000202891
0.000238933
0.00022086
0.000188202
0.000162224
0.000142981
0.000128562
0.000117366
0.000108341
0.000100686
9.39998e-05
8.79997e-05
8.26496e-05
7.78504e-05
7.33703e-05
6.92653e-05
6.51616e-05
6.17602e-05
7.32802e-07
6.99721e-07
7.58849e-07
8.96072e-07
1.10415e-06
1.35776e-06
1.65797e-06
2.00199e-06
2.38513e-06
2.80302e-06
3.25117e-06
3.7246e-06
4.21926e-06
4.73125e-06
5.25712e-06
5.79397e-06
6.34115e-06
6.90605e-06
7.4898e-06
8.09672e-06
8.73133e-06
9.39839e-06
1.0104e-05
1.08527e-05
1.16511e-05
1.25055e-05
1.3421e-05
1.4402e-05
1.54532e-05
1.65781e-05
1.7779e-05
1.9057e-05
2.0413e-05
2.18468e-05
2.33564e-05
2.49386e-05
2.65896e-05
2.83055e-05
3.00814e-05
3.19107e-05
3.37865e-05
3.57026e-05
3.76523e-05
3.96282e-05
4.16227e-05
4.36287e-05
4.564e-05
4.76499e-05
4.96519e-05
5.16402e-05
5.36099e-05
5.55564e-05
5.74749e-05
5.93619e-05
6.12145e-05
6.303e-05
6.4806e-05
6.65408e-05
6.82334e-05
6.98831e-05
7.14892e-05
7.30513e-05
7.457e-05
7.60458e-05
7.74793e-05
7.88711e-05
8.02223e-05
8.15343e-05
8.28084e-05
8.40457e-05
8.52462e-05
8.64157e-05
8.75449e-05
8.86334e-05
8.96875e-05
9.07113e-05
9.17079e-05
9.26794e-05
9.36274e-05
9.45536e-05
9.54595e-05
9.63465e-05
9.72156e-05
9.80678e-05
9.89046e-05
9.97266e-05
0.000100534
0.000101329
0.00010211
0.00010288
0.000103639
0.000104387
0.000105126
0.000105856
0.000106576
0.000107289
0.000107995
0.000108693
0.000109384
0.000110069
0.000110748
0.000111422
0.00011209
0.000112753
0.000113412
0.000114066
0.000114716
0.000115363
0.000116005
0.000116644
0.00011728
0.000117913
0.000118543
0.00011917
0.000119795
0.000120417
0.000121037
0.000121655
0.00012227
0.000122884
0.000123495
0.000124105
0.000124713
0.00012532
0.000125924
0.000126528
0.000127129
0.000127729
0.000128327
0.000128924
0.00012952
0.000130113
0.000130706
0.000131296
0.000131886
0.000132473
0.00013306
0.000133644
0.000134227
0.000134809
0.000135389
0.000135967
0.000136543
0.000137118
0.000137691
0.000138262
0.000138831
0.000139398
0.000139963
0.000140526
0.000141087
0.000141645
0.000142201
0.000142755
0.000143305
0.000143853
0.000144398
0.000144939
0.000145476
0.000146009
0.000146537
0.00014706
0.000147576
0.000148084
0.000148583
0.000149071
0.000149543
0.000150006
0.000150425
0.000150883
0.000151153
0.000151668
0.000151616
0.000152209
0.000151732
0.000152229
0.000151521
0.000150769
0.000150276
0.000145455
1.97815e-06
1.13818e-06
7.49748e-07
6.71714e-07
6.78603e-07
7.10754e-07
7.5168e-07
7.96948e-07
8.44749e-07
8.92752e-07
9.39274e-07
9.83181e-07
1.02533e-06
1.07065e-06
1.12713e-06
1.20611e-06
1.31107e-06
1.42415e-06
1.54518e-06
1.67374e-06
1.80974e-06
1.9531e-06
2.1029e-06
2.25969e-06
2.42405e-06
2.59565e-06
2.7752e-06
2.96362e-06
3.16187e-06
3.37105e-06
3.59228e-06
3.82674e-06
4.07588e-06
4.34103e-06
4.6238e-06
4.92553e-06
5.2469e-06
5.58905e-06
5.95279e-06
6.33867e-06
6.7472e-06
7.17866e-06
7.63308e-06
8.11029e-06
8.60999e-06
9.13173e-06
9.67477e-06
1.02383e-05
1.08213e-05
1.14227e-05
1.20414e-05
1.26762e-05
1.33256e-05
1.39884e-05
1.4663e-05
1.53482e-05
1.60426e-05
1.67447e-05
1.74532e-05
1.81668e-05
1.88842e-05
1.96044e-05
2.03262e-05
2.10485e-05
2.17703e-05
2.2491e-05
2.32092e-05
2.39253e-05
2.46375e-05
2.53443e-05
2.60534e-05
2.67424e-05
2.74462e-05
2.81743e-05
2.89157e-05
2.96643e-05
3.04152e-05
3.11649e-05
3.19109e-05
3.26523e-05
3.33861e-05
3.41132e-05
3.48305e-05
3.55403e-05
3.6239e-05
3.69271e-05
3.76049e-05
3.8273e-05
3.89319e-05
3.95819e-05
4.02237e-05
4.08586e-05
4.14867e-05
4.21085e-05
4.27242e-05
4.33346e-05
4.39401e-05
4.45413e-05
4.51384e-05
4.57317e-05
4.63217e-05
4.69089e-05
4.74937e-05
4.80766e-05
4.86575e-05
4.9237e-05
4.98155e-05
5.03934e-05
5.09709e-05
5.15482e-05
5.21254e-05
5.27029e-05
5.3281e-05
5.38602e-05
5.44406e-05
5.50224e-05
5.56057e-05
5.61908e-05
5.67779e-05
5.73675e-05
5.79596e-05
5.85544e-05
5.91519e-05
5.97524e-05
6.0356e-05
6.09629e-05
6.15732e-05
6.21871e-05
6.28047e-05
6.34263e-05
6.40518e-05
6.46813e-05
6.5315e-05
6.59528e-05
6.6595e-05
6.72416e-05
6.78929e-05
6.85488e-05
6.92093e-05
6.98745e-05
7.05444e-05
7.12192e-05
7.18989e-05
7.25835e-05
7.32731e-05
7.39678e-05
7.46675e-05
7.53723e-05
7.60822e-05
7.67974e-05
7.75178e-05
7.82434e-05
7.89743e-05
7.97105e-05
8.04519e-05
8.11987e-05
8.19508e-05
8.27083e-05
8.34712e-05
8.42396e-05
8.50136e-05
8.57931e-05
8.65784e-05
8.73683e-05
8.81666e-05
8.89637e-05
8.97839e-05
9.05704e-05
9.1449e-05
9.21689e-05
9.31794e-05
9.38009e-05
9.4937e-05
9.55111e-05
9.68422e-05
9.73091e-05
9.89945e-05
9.93829e-05
0.000101086
0.00010593
3.81481e-06
1.92985e-06
9.77076e-07
7.0806e-07
6.67935e-07
6.65629e-07
6.72697e-07
6.83351e-07
6.95619e-07
7.10681e-07
7.28871e-07
7.51016e-07
7.7744e-07
8.08641e-07
8.44905e-07
8.86986e-07
9.33879e-07
9.83342e-07
1.03563e-06
1.0898e-06
1.14457e-06
1.1987e-06
1.25094e-06
1.30094e-06
1.34744e-06
1.38908e-06
1.42563e-06
1.45673e-06
1.48228e-06
1.50208e-06
1.51602e-06
1.52435e-06
1.52794e-06
1.52541e-06
1.51495e-06
1.49966e-06
1.48155e-06
1.46258e-06
1.44366e-06
1.42533e-06
1.40896e-06
1.39618e-06
1.38811e-06
1.3855e-06
1.38895e-06
1.3994e-06
1.41759e-06
1.44374e-06
1.47805e-06
1.52066e-06
1.57143e-06
1.63013e-06
1.69655e-06
1.77035e-06
1.85112e-06
1.9385e-06
2.0321e-06
2.13159e-06
2.23662e-06
2.34687e-06
2.46204e-06
2.58181e-06
2.70587e-06
2.834e-06
2.96586e-06
3.10124e-06
3.23978e-06
3.38157e-06
3.52576e-06
3.67291e-06
3.8223e-06
3.97348e-06
4.12687e-06
4.28296e-06
4.44237e-06
4.60529e-06
4.77204e-06
4.94064e-06
5.11514e-06
5.28699e-06
5.47054e-06
5.64381e-06
5.83362e-06
6.00885e-06
6.20283e-06
6.41344e-06
6.63695e-06
6.87034e-06
7.11008e-06
7.35489e-06
7.60231e-06
7.85084e-06
8.09954e-06
8.3477e-06
8.59508e-06
8.84127e-06
9.08607e-06
9.32936e-06
9.57097e-06
9.81078e-06
1.00488e-05
1.02853e-05
1.05203e-05
1.0754e-05
1.09864e-05
1.12176e-05
1.1448e-05
1.16777e-05
1.19068e-05
1.21354e-05
1.23637e-05
1.25919e-05
1.28202e-05
1.30488e-05
1.32781e-05
1.35079e-05
1.37385e-05
1.39702e-05
1.4203e-05
1.44374e-05
1.46733e-05
1.49109e-05
1.51504e-05
1.53919e-05
1.56355e-05
1.58814e-05
1.61298e-05
1.63808e-05
1.66345e-05
1.6891e-05
1.71506e-05
1.74133e-05
1.76793e-05
1.79486e-05
1.82214e-05
1.84978e-05
1.87779e-05
1.9062e-05
1.935e-05
1.96422e-05
1.99385e-05
2.02391e-05
2.05441e-05
2.08536e-05
2.11677e-05
2.14866e-05
2.18104e-05
2.21391e-05
2.2473e-05
2.2812e-05
2.31564e-05
2.35063e-05
2.38618e-05
2.42231e-05
2.45903e-05
2.49635e-05
2.5343e-05
2.5729e-05
2.61216e-05
2.65214e-05
2.69286e-05
2.73435e-05
2.77673e-05
2.81979e-05
2.86441e-05
2.90853e-05
2.9576e-05
2.99962e-05
3.06006e-05
3.09268e-05
3.17164e-05
3.20194e-05
3.29622e-05
3.32118e-05
3.45584e-05
3.47266e-05
3.65762e-05
3.69542e-05
3.87027e-05
4.46263e-05
6.28271e-06
3.0117e-06
1.36761e-06
8.17078e-07
7.1523e-07
7.08248e-07
7.19063e-07
7.36126e-07
7.56514e-07
7.81075e-07
8.10897e-07
8.45994e-07
8.86134e-07
9.32114e-07
9.82167e-07
1.03664e-06
1.0954e-06
1.15563e-06
1.21655e-06
1.27777e-06
1.33813e-06
1.39554e-06
1.44817e-06
1.49561e-06
1.53709e-06
1.5711e-06
1.59736e-06
1.61501e-06
1.62469e-06
1.62595e-06
1.61804e-06
1.6032e-06
1.58239e-06
1.55626e-06
1.52543e-06
1.49065e-06
1.4519e-06
1.40952e-06
1.3639e-06
1.31561e-06
1.26538e-06
1.21384e-06
1.16139e-06
1.10842e-06
1.05541e-06
1.00275e-06
9.50802e-07
8.999e-07
8.50187e-07
8.01938e-07
7.55717e-07
7.11531e-07
6.6869e-07
6.27607e-07
5.88786e-07
5.52597e-07
5.19071e-07
4.88537e-07
4.6107e-07
4.36601e-07
4.15656e-07
3.97992e-07
3.83189e-07
3.72526e-07
3.6512e-07
3.59417e-07
3.57879e-07
3.58976e-07
3.62309e-07
3.6778e-07
3.75058e-07
3.83951e-07
3.94246e-07
4.05735e-07
4.18307e-07
4.31877e-07
4.46399e-07
4.61592e-07
4.77916e-07
4.94329e-07
5.12429e-07
5.30083e-07
5.49065e-07
5.68597e-07
5.88037e-07
6.08759e-07
6.31797e-07
6.53405e-07
6.81582e-07
7.05135e-07
7.32921e-07
7.71128e-07
8.16345e-07
8.66164e-07
9.1874e-07
9.72824e-07
1.02766e-06
1.08277e-06
1.13782e-06
1.19256e-06
1.24687e-06
1.30072e-06
1.35406e-06
1.40688e-06
1.45918e-06
1.51097e-06
1.56229e-06
1.61317e-06
1.66362e-06
1.71367e-06
1.76336e-06
1.81274e-06
1.8619e-06
1.91087e-06
1.9597e-06
2.0084e-06
2.05704e-06
2.1057e-06
2.15444e-06
2.20333e-06
2.2524e-06
2.30168e-06
2.35122e-06
2.40106e-06
2.45127e-06
2.50191e-06
2.55303e-06
2.60468e-06
2.65689e-06
2.7097e-06
2.76317e-06
2.81736e-06
2.87232e-06
2.92808e-06
2.98469e-06
3.04219e-06
3.10065e-06
3.1601e-06
3.22061e-06
3.28221e-06
3.34494e-06
3.40885e-06
3.47399e-06
3.54041e-06
3.60816e-06
3.67729e-06
3.74784e-06
3.81988e-06
3.89348e-06
3.9687e-06
4.04561e-06
4.12427e-06
4.20476e-06
4.28716e-06
4.37155e-06
4.45806e-06
4.54679e-06
4.63789e-06
4.73153e-06
4.82794e-06
4.92745e-06
5.03008e-06
5.13714e-06
5.24632e-06
5.36564e-06
5.47734e-06
5.62551e-06
5.71923e-06
5.93715e-06
5.99663e-06
6.29062e-06
6.35503e-06
6.77253e-06
6.79597e-06
7.46995e-06
7.46962e-06
8.49833e-06
8.70347e-06
9.68231e-06
1.32649e-05
9.21407e-06
4.22584e-06
1.81568e-06
9.67298e-07
8.03834e-07
7.93155e-07
8.12855e-07
8.41969e-07
8.7657e-07
9.16813e-07
9.63292e-07
1.01676e-06
1.07667e-06
1.14203e-06
1.21277e-06
1.28733e-06
1.36565e-06
1.44521e-06
1.52303e-06
1.59839e-06
1.66889e-06
1.73376e-06
1.78999e-06
1.83721e-06
1.87504e-06
1.90164e-06
1.91787e-06
1.92391e-06
1.91955e-06
1.90639e-06
1.88456e-06
1.85468e-06
1.81759e-06
1.77412e-06
1.72522e-06
1.67191e-06
1.61509e-06
1.55544e-06
1.49363e-06
1.43042e-06
1.36652e-06
1.30233e-06
1.23816e-06
1.17444e-06
1.11162e-06
1.05008e-06
9.89939e-07
9.31286e-07
8.74439e-07
8.19588e-07
7.66603e-07
7.15633e-07
6.67172e-07
6.21212e-07
5.77581e-07
5.3619e-07
4.96973e-07
4.59891e-07
4.2491e-07
3.91984e-07
3.6107e-07
3.32107e-07
3.05023e-07
2.79773e-07
2.56274e-07
2.3445e-07
2.14266e-07
1.95614e-07
1.78398e-07
1.62576e-07
1.4809e-07
1.34882e-07
1.22893e-07
1.12063e-07
1.02347e-07
9.36907e-08
8.60622e-08
7.93863e-08
7.36851e-08
6.88051e-08
6.48897e-08
6.16202e-08
5.92123e-08
5.74704e-08
5.60429e-08
5.54271e-08
5.54834e-08
5.55974e-08
5.63886e-08
5.74229e-08
5.8242e-08
6.02352e-08
6.24546e-08
6.46718e-08
6.92401e-08
7.54494e-08
8.26439e-08
9.04159e-08
9.85154e-08
1.06792e-07
1.15157e-07
1.23556e-07
1.31957e-07
1.40334e-07
1.4867e-07
1.56955e-07
1.65179e-07
1.73335e-07
1.81418e-07
1.89426e-07
1.9736e-07
2.05227e-07
2.13032e-07
2.20775e-07
2.28457e-07
2.36082e-07
2.43659e-07
2.51202e-07
2.5872e-07
2.66222e-07
2.73709e-07
2.81186e-07
2.88658e-07
2.96138e-07
3.03638e-07
3.11171e-07
3.18742e-07
3.26357e-07
3.3402e-07
3.41738e-07
3.49524e-07
3.57392e-07
3.65351e-07
3.73406e-07
3.81565e-07
3.89834e-07
3.98224e-07
4.06745e-07
4.15408e-07
4.24224e-07
4.332e-07
4.42344e-07
4.51661e-07
4.61162e-07
4.70857e-07
4.80754e-07
4.90865e-07
5.01206e-07
5.11792e-07
5.2263e-07
5.33738e-07
5.45124e-07
5.56811e-07
5.68818e-07
5.81164e-07
5.93885e-07
6.07005e-07
6.20563e-07
6.34604e-07
6.49192e-07
6.64426e-07
6.80296e-07
6.97256e-07
7.14475e-07
7.3469e-07
7.51936e-07
7.80635e-07
7.91986e-07
8.39944e-07
8.45923e-07
9.11581e-07
9.19272e-07
1.02464e-06
1.02487e-06
1.20561e-06
1.21182e-06
1.49523e-06
1.59667e-06
1.90484e-06
3.23947e-06
1.24587e-05
5.41791e-06
2.25391e-06
1.13399e-06
9.26751e-07
9.18906e-07
9.55097e-07
1.00557e-06
1.0644e-06
1.13131e-06
1.20791e-06
1.29361e-06
1.38752e-06
1.48855e-06
1.59692e-06
1.70961e-06
1.82478e-06
1.93921e-06
2.0477e-06
2.14777e-06
2.23453e-06
2.30824e-06
2.36608e-06
2.40455e-06
2.42595e-06
2.43209e-06
2.42134e-06
2.39679e-06
2.35977e-06
2.31199e-06
2.25531e-06
2.19155e-06
2.1222e-06
2.04835e-06
1.97098e-06
1.89119e-06
1.81002e-06
1.72826e-06
1.6465e-06
1.56524e-06
1.48492e-06
1.406e-06
1.32884e-06
1.25375e-06
1.18091e-06
1.1104e-06
1.04236e-06
9.76937e-07
9.14231e-07
8.54251e-07
7.96992e-07
7.42424e-07
6.90538e-07
6.41328e-07
5.94734e-07
5.50681e-07
5.09121e-07
4.70021e-07
4.33314e-07
3.98905e-07
3.66693e-07
3.36597e-07
3.08539e-07
2.82426e-07
2.58167e-07
2.35665e-07
2.14817e-07
1.95549e-07
1.77783e-07
1.61425e-07
1.46382e-07
1.32568e-07
1.19902e-07
1.08309e-07
9.77138e-08
8.80466e-08
7.92381e-08
7.12236e-08
6.39452e-08
5.73456e-08
5.13705e-08
4.59676e-08
4.10915e-08
3.66996e-08
3.27499e-08
2.92044e-08
2.60347e-08
2.31981e-08
2.06766e-08
1.84387e-08
1.64525e-08
1.47195e-08
1.31974e-08
1.18959e-08
1.0798e-08
9.89872e-09
9.3451e-09
9.16884e-09
9.26598e-09
9.664e-09
1.02605e-08
1.10058e-08
1.18577e-08
1.27845e-08
1.37629e-08
1.47764e-08
1.58132e-08
1.68646e-08
1.79242e-08
1.89877e-08
2.0052e-08
2.11152e-08
2.21758e-08
2.32321e-08
2.42826e-08
2.53269e-08
2.63651e-08
2.73983e-08
2.84271e-08
2.94521e-08
3.04726e-08
3.14886e-08
3.25009e-08
3.35112e-08
3.4521e-08
3.55318e-08
3.65442e-08
3.75583e-08
3.85745e-08
3.9594e-08
4.06186e-08
4.16504e-08
4.26911e-08
4.37411e-08
4.48012e-08
4.58723e-08
4.69557e-08
4.80528e-08
4.91661e-08
5.02972e-08
5.14475e-08
5.26176e-08
5.38081e-08
5.502e-08
5.62551e-08
5.75148e-08
5.88013e-08
6.01173e-08
6.14649e-08
6.28449e-08
6.426e-08
6.57112e-08
6.72025e-08
6.87379e-08
7.03204e-08
7.19566e-08
7.36505e-08
7.54086e-08
7.72401e-08
7.91554e-08
8.1175e-08
8.3294e-08
8.5611e-08
8.79381e-08
9.0874e-08
9.31218e-08
9.77376e-08
9.88354e-08
1.06857e-07
1.07783e-07
1.18447e-07
1.20162e-07
1.38342e-07
1.40303e-07
1.72482e-07
1.79364e-07
2.33021e-07
2.66441e-07
3.39088e-07
7.24218e-07
1.60855e-05
6.54808e-06
2.6578e-06
1.32172e-06
1.10387e-06
1.10731e-06
1.18101e-06
1.26682e-06
1.36668e-06
1.48007e-06
1.61007e-06
1.75473e-06
1.91367e-06
2.08625e-06
2.27057e-06
2.46274e-06
2.65774e-06
2.84542e-06
3.01552e-06
3.16395e-06
3.28019e-06
3.36236e-06
3.40658e-06
3.42271e-06
3.40137e-06
3.35181e-06
3.27731e-06
3.18353e-06
3.07563e-06
2.95837e-06
2.83526e-06
2.70902e-06
2.58169e-06
2.45479e-06
2.32947e-06
2.20664e-06
2.08685e-06
1.97043e-06
1.85767e-06
1.74891e-06
1.64443e-06
1.54432e-06
1.44852e-06
1.35695e-06
1.26962e-06
1.18655e-06
1.10769e-06
1.03289e-06
9.61968e-07
8.94815e-07
8.31365e-07
7.71537e-07
7.15177e-07
6.62104e-07
6.12183e-07
5.6533e-07
5.21449e-07
4.8039e-07
4.41987e-07
4.06116e-07
3.72682e-07
3.41584e-07
3.12689e-07
2.85865e-07
2.60997e-07
2.37989e-07
2.16741e-07
1.97141e-07
1.79083e-07
1.62471e-07
1.47215e-07
1.33226e-07
1.20416e-07
1.08703e-07
9.80104e-08
8.82614e-08
7.93849e-08
7.13147e-08
6.39888e-08
5.73492e-08
5.13391e-08
4.59048e-08
4.09975e-08
3.65729e-08
3.25901e-08
2.90092e-08
2.57932e-08
2.29081e-08
2.0323e-08
1.80108e-08
1.59449e-08
1.41014e-08
1.2458e-08
1.09948e-08
9.69409e-09
8.53948e-09
7.51579e-09
6.61034e-09
5.8126e-09
5.11317e-09
4.50351e-09
3.97668e-09
3.52731e-09
3.15128e-09
2.84534e-09
2.60673e-09
2.43198e-09
2.31668e-09
2.25457e-09
2.23668e-09
2.25727e-09
2.30635e-09
2.37737e-09
2.46468e-09
2.56355e-09
2.67056e-09
2.78331e-09
2.90014e-09
3.01985e-09
3.14159e-09
3.26466e-09
3.38855e-09
3.51296e-09
3.63781e-09
3.76309e-09
3.88881e-09
4.01491e-09
4.1413e-09
4.26793e-09
4.39488e-09
4.52236e-09
4.65061e-09
4.77978e-09
4.90994e-09
5.04113e-09
5.17341e-09
5.30693e-09
5.44189e-09
5.57864e-09
5.71747e-09
5.85854e-09
6.0019e-09
6.14755e-09
6.29562e-09
6.44631e-09
6.59988e-09
6.7567e-09
6.91715e-09
7.08148e-09
7.24975e-09
7.42235e-09
7.59942e-09
7.7815e-09
7.96935e-09
8.16336e-09
8.36453e-09
8.57349e-09
8.79119e-09
9.01909e-09
9.25879e-09
9.5136e-09
9.78255e-09
1.00826e-08
1.03807e-08
1.07811e-08
1.10592e-08
1.17327e-08
1.18621e-08
1.2997e-08
1.32e-08
1.4729e-08
1.5148e-08
1.78176e-08
1.86443e-08
2.35499e-08
2.59102e-08
3.50134e-08
4.35303e-08
5.98227e-08
1.58632e-07
2.05949e-05
7.63123e-06
3.02815e-06
1.55269e-06
1.36169e-06
1.40136e-06
1.53776e-06
1.68497e-06
1.86121e-06
2.06541e-06
2.30312e-06
2.5726e-06
2.87551e-06
3.2093e-06
3.56375e-06
3.92795e-06
4.29005e-06
4.62451e-06
4.90761e-06
5.14316e-06
5.29614e-06
5.37637e-06
5.39671e-06
5.32972e-06
5.20224e-06
5.02418e-06
4.80161e-06
4.55175e-06
4.28716e-06
4.02006e-06
3.75862e-06
3.50803e-06
3.27124e-06
3.0492e-06
2.84155e-06
2.6475e-06
2.46618e-06
2.29673e-06
2.13833e-06
1.99017e-06
1.85153e-06
1.72177e-06
1.60035e-06
1.4868e-06
1.38066e-06
1.2814e-06
1.18852e-06
1.10161e-06
1.02033e-06
9.44401e-07
8.73482e-07
8.07206e-07
7.45265e-07
6.87436e-07
6.33533e-07
5.83329e-07
5.3656e-07
4.92993e-07
4.52467e-07
4.14847e-07
3.79969e-07
3.47636e-07
3.17672e-07
2.89947e-07
2.64347e-07
2.40745e-07
2.18995e-07
1.98968e-07
1.80554e-07
1.63655e-07
1.48169e-07
1.3399e-07
1.21023e-07
1.09182e-07
9.83851e-08
8.8553e-08
7.96095e-08
7.14857e-08
6.41183e-08
5.74458e-08
5.14087e-08
4.59526e-08
4.10283e-08
3.65918e-08
3.26001e-08
2.90121e-08
2.57899e-08
2.29e-08
2.03119e-08
1.79981e-08
1.59311e-08
1.40866e-08
1.24423e-08
1.09783e-08
9.67714e-09
8.522e-09
7.49718e-09
6.58878e-09
5.78485e-09
5.07444e-09
4.44726e-09
3.89405e-09
3.40667e-09
2.97782e-09
2.60099e-09
2.27043e-09
1.98101e-09
1.72805e-09
1.50739e-09
1.31542e-09
1.14903e-09
1.0055e-09
8.82538e-10
7.78154e-10
6.90614e-10
6.18396e-10
5.60109e-10
5.14425e-10
4.80018e-10
4.55555e-10
4.39556e-10
4.30986e-10
4.27148e-10
4.2903e-10
4.33802e-10
4.41127e-10
4.5042e-10
4.61171e-10
4.73006e-10
4.85645e-10
4.98905e-10
5.12664e-10
5.26843e-10
5.41377e-10
5.56217e-10
5.71321e-10
5.86669e-10
6.02265e-10
6.18136e-10
6.34311e-10
6.50796e-10
6.67583e-10
6.8466e-10
7.02033e-10
7.19728e-10
7.37779e-10
7.56233e-10
7.75137e-10
7.94515e-10
8.14366e-10
8.3475e-10
8.5568e-10
8.77224e-10
8.99495e-10
9.22546e-10
9.46513e-10
9.71488e-10
9.97602e-10
1.02507e-09
1.05412e-09
1.08524e-09
1.11834e-09
1.15587e-09
1.19324e-09
1.24546e-09
1.28106e-09
1.37242e-09
1.39446e-09
1.54634e-09
1.59571e-09
1.80107e-09
1.92912e-09
2.30877e-09
2.60651e-09
3.3862e-09
4.21444e-09
6.01122e-09
8.67343e-09
1.33744e-08
3.73811e-08
2.51613e-05
8.49355e-06
3.24922e-06
1.8343e-06
1.72417e-06
1.85903e-06
2.10359e-06
2.37104e-06
2.70922e-06
3.11258e-06
3.59278e-06
4.15461e-06
4.78712e-06
5.47028e-06
6.16281e-06
6.83517e-06
7.46072e-06
8.02438e-06
8.46533e-06
8.82513e-06
9.00359e-06
9.0673e-06
9.01362e-06
8.7743e-06
8.44776e-06
8.02554e-06
7.51642e-06
6.95961e-06
6.38383e-06
5.81722e-06
5.28005e-06
4.78421e-06
4.33592e-06
3.9363e-06
3.58172e-06
3.26693e-06
2.98645e-06
2.73512e-06
2.50853e-06
2.3032e-06
2.11648e-06
1.94627e-06
1.79072e-06
1.64817e-06
1.51727e-06
1.3969e-06
1.28616e-06
1.18418e-06
1.09015e-06
1.00332e-06
9.23067e-07
8.48883e-07
7.8032e-07
7.1694e-07
6.58312e-07
6.04045e-07
5.53824e-07
5.07392e-07
4.64505e-07
4.24896e-07
3.88302e-07
3.54503e-07
3.2333e-07
2.94626e-07
2.68216e-07
2.43919e-07
2.21576e-07
2.0106e-07
1.82256e-07
1.6504e-07
1.49288e-07
1.34885e-07
1.21734e-07
1.09746e-07
9.88321e-08
8.89038e-08
7.9882e-08
7.16958e-08
6.42789e-08
5.75663e-08
5.14967e-08
4.60153e-08
4.10722e-08
3.66216e-08
3.26185e-08
2.90208e-08
2.57917e-08
2.28968e-08
2.03058e-08
1.799e-08
1.59211e-08
1.40751e-08
1.24302e-08
1.0966e-08
9.66504e-09
8.51034e-09
7.48571e-09
6.57771e-09
5.77436e-09
5.06443e-09
4.4376e-09
3.88475e-09
3.39771e-09
2.96908e-09
2.59227e-09
2.26147e-09
1.97143e-09
1.71736e-09
1.49495e-09
1.30041e-09
1.13041e-09
9.82032e-10
8.52702e-10
7.40126e-10
6.42252e-10
5.5725e-10
4.83484e-10
4.19507e-10
3.64079e-10
3.16148e-10
2.74816e-10
2.39291e-10
2.08833e-10
1.82806e-10
1.60627e-10
1.41843e-10
1.2609e-10
1.13051e-10
1.02426e-10
9.39137e-11
8.72291e-11
8.21133e-11
7.83426e-11
7.57091e-11
7.40421e-11
7.2955e-11
7.27664e-11
7.2955e-11
7.34847e-11
7.43247e-11
7.54102e-11
7.66918e-11
7.81313e-11
7.97048e-11
8.13954e-11
8.31893e-11
8.50769e-11
8.70497e-11
8.91042e-11
9.12381e-11
9.34568e-11
9.5759e-11
9.81442e-11
1.00624e-10
1.03202e-10
1.05897e-10
1.08723e-10
1.11696e-10
1.14852e-10
1.18231e-10
1.21893e-10
1.25903e-10
1.30512e-10
1.35484e-10
1.42188e-10
1.48552e-10
1.59997e-10
1.70557e-10
1.88113e-10
2.17687e-10
2.47901e-10
3.21966e-10
4.22011e-10
6.21609e-10
9.84375e-10
1.53361e-09
2.65984e-09
4.36776e-09
7.09989e-09
1.48374e-08
3.28223e-05
1.0021e-05
3.87148e-06
2.38722e-06
2.28315e-06
2.60073e-06
3.03699e-06
3.57153e-06
4.25123e-06
5.09628e-06
6.11431e-06
7.28213e-06
8.54605e-06
9.7918e-06
1.09526e-05
1.19939e-05
1.29192e-05
1.36974e-05
1.43059e-05
1.47935e-05
1.50177e-05
1.49567e-05
1.48421e-05
1.42908e-05
1.37003e-05
1.29248e-05
1.19915e-05
1.09518e-05
9.86873e-06
8.79585e-06
7.77657e-06
6.84078e-06
6.00653e-06
5.28415e-06
4.66719e-06
4.14278e-06
3.69676e-06
3.31524e-06
2.98594e-06
2.69885e-06
2.44621e-06
2.22211e-06
2.02197e-06
1.8423e-06
1.68043e-06
1.53424e-06
1.40181e-06
1.28146e-06
1.17182e-06
1.07181e-06
9.80531e-07
8.97117e-07
8.20747e-07
7.50717e-07
6.86462e-07
6.2751e-07
5.73419e-07
5.23752e-07
4.78109e-07
4.36148e-07
3.9759e-07
3.62189e-07
3.29704e-07
2.99894e-07
2.72536e-07
2.47439e-07
2.24447e-07
2.03412e-07
1.8418e-07
1.66601e-07
1.50541e-07
1.35888e-07
1.22539e-07
1.10392e-07
9.93459e-08
8.93085e-08
8.01983e-08
7.19419e-08
6.44686e-08
5.77101e-08
5.16038e-08
4.60938e-08
4.11288e-08
3.66608e-08
3.26436e-08
2.9035e-08
2.5798e-08
2.28974e-08
2.03026e-08
1.79835e-08
1.59122e-08
1.40645e-08
1.24185e-08
1.09536e-08
9.65245e-09
8.4981e-09
7.47399e-09
6.56645e-09
5.76358e-09
5.05411e-09
4.42777e-09
3.87551e-09
3.38912e-09
2.96111e-09
2.58486e-09
2.25459e-09
1.96505e-09
1.71143e-09
1.48944e-09
1.29527e-09
1.12559e-09
9.77516e-10
8.48465e-10
7.36127e-10
6.38432e-10
5.53533e-10
4.79787e-10
4.15755e-10
3.60201e-10
3.1207e-10
2.70441e-10
2.34485e-10
2.03439e-10
1.76611e-10
1.5341e-10
1.33357e-10
1.16061e-10
1.01184e-10
8.8409e-11
7.74332e-11
6.79849e-11
5.98411e-11
5.2835e-11
4.68303e-11
4.16987e-11
3.73139e-11
3.35644e-11
3.03593e-11
2.76229e-11
2.52925e-11
2.33119e-11
2.16366e-11
2.02302e-11
1.90643e-11
1.81075e-11
1.73242e-11
1.66842e-11
1.61601e-11
1.57392e-11
1.54145e-11
1.51733e-11
1.49939e-11
1.48878e-11
1.48302e-11
1.48108e-11
1.48287e-11
1.4882e-11
1.49764e-11
1.51236e-11
1.53295e-11
1.56149e-11
1.60527e-11
1.6667e-11
1.76572e-11
1.90166e-11
2.13322e-11
2.48765e-11
3.1987e-11
4.33545e-11
6.65277e-11
1.01709e-10
1.71868e-10
2.8349e-10
4.75356e-10
8.29309e-10
1.34568e-09
2.33671e-09
3.85024e-09
6.22393e-09
1.06108e-08
3.86257e-05
1.08082e-05
3.90675e-06
2.84188e-06
3.11425e-06
3.76058e-06
4.58355e-06
5.65119e-06
7.07075e-06
8.7651e-06
1.07437e-05
1.28433e-05
1.48484e-05
1.66539e-05
1.81688e-05
1.95391e-05
2.06195e-05
2.15124e-05
2.23223e-05
2.29021e-05
2.31605e-05
2.29183e-05
2.27486e-05
2.17165e-05
2.08536e-05
1.97063e-05
1.8364e-05
1.67685e-05
1.50599e-05
1.33214e-05
1.16205e-05
1.00214e-05
8.57416e-06
7.32445e-06
6.27287e-06
5.39737e-06
4.67536e-06
4.08215e-06
3.59278e-06
3.18488e-06
2.84018e-06
2.54488e-06
2.28875e-06
2.06427e-06
1.86598e-06
1.68977e-06
1.53233e-06
1.39106e-06
1.26391e-06
1.14921e-06
1.04548e-06
9.5146e-07
8.6609e-07
7.8852e-07
7.18007e-07
6.53829e-07
5.9531e-07
5.41881e-07
4.93087e-07
4.48538e-07
4.07863e-07
3.70697e-07
3.36714e-07
3.05636e-07
2.77231e-07
2.5129e-07
2.27613e-07
2.06005e-07
1.86286e-07
1.683e-07
1.5191e-07
1.36994e-07
1.23432e-07
1.11108e-07
9.99147e-08
8.97569e-08
8.05508e-08
7.22179e-08
6.46826e-08
5.78737e-08
5.17273e-08
4.61857e-08
4.11958e-08
3.67079e-08
3.2675e-08
2.90543e-08
2.58083e-08
2.29013e-08
2.03013e-08
1.7978e-08
1.59037e-08
1.40542e-08
1.24071e-08
1.0942e-08
9.64046e-09
8.48533e-09
7.46118e-09
6.55431e-09
5.75228e-09
5.04347e-09
4.4176e-09
3.86585e-09
3.38004e-09
2.95266e-09
2.57708e-09
2.24745e-09
1.95843e-09
1.70524e-09
1.48362e-09
1.28984e-09
1.12059e-09