/*--------------------------------*- C++ -*----------------------------------*\
| =========                 |                                                 |
| \\      /  F ield         | OpenFOAM: The Open Source CFD Toolbox           |
|  \\    /   O peration     | Version:  2.1.x                                 |
|   \\  /    A nd           | Web:      www.OpenFOAM.org                      |
|    \\/     M anipulation  |                                                 |
\*---------------------------------------------------------------------------*/
FoamFile
{
    version     2.0;
    format      ascii;
    class       volScalarField;
    location    "0.004";
    object      p;
}
// * * * * * * * * * * * * * * * * * * * * * * * * * * * * * * * * * * * * * //

dimensions      [0 2 -2 0 0 0 0];

internalField   nonuniform List<scalar> 
12225
(
395.546
376.092
367.54
363.17
359.169
355.264
352.056
348.703
344.457
340.451
337.48
334.815
331.54
327.639
323.859
320.731
317.658
313.87
391.418
375.715
367.649
363.247
359.207
355.248
352.021
348.722
344.457
340.412
337.442
334.832
331.575
327.644
323.804
320.731
317.749
314.086
386.756
375.893
368.308
363.584
359.38
355.349
352.108
348.779
344.473
340.405
337.435
334.867
331.718
327.734
323.881
320.83
317.969
314.654
382.38
376.067
369.073
364.004
359.631
355.538
352.205
348.845
344.597
340.586
337.539
334.87
331.754
327.92
324.208
321.193
318.448
315.539
381.202
376.393
369.873
364.461
359.952
355.878
352.387
348.854
344.716
340.875
337.82
334.935
331.829
328.268
324.722
321.766
319.113
316.45
380.406
376.934
370.732
365.075
360.339
356.177
352.522
348.966
344.943
341.223
338.077
335.029
331.904
328.686
325.379
322.415
319.811
317.424
382.195
377.846
371.55
365.708
360.737
356.479
352.651
348.977
345.149
341.562
338.417
335.255
332.146
329.152
326.013
323.058
320.617
318.456
386.671
378.921
372.265
366.289
361.122
356.706
352.821
349.068
345.33
341.807
338.641
335.465
332.368
329.553
326.603
323.675
321.299
319.292
388.097
379.854
372.851
366.745
361.452
356.912
352.91
349.12
345.458
342.027
338.85
335.709
332.664
329.902
327.058
324.212
321.856
320.017
389.931
380.751
373.478
367.252
361.83
357.119
352.989
349.179
345.599
342.226
339.055
335.952
332.961
330.294
327.656
324.859
322.472
320.715
391.423
381.651
373.994
367.59
362.106
357.335
353.129
349.257
345.683
342.408
339.306
336.278
333.384
330.75
328.159
325.485
323.281
321.565
391.961
382.254
374.352
367.888
362.321
357.508
353.266
349.357
345.8
342.596
339.553
336.612
333.81
331.239
328.82
326.293
323.929
322.186
393.9
382.493
374.332
367.887
362.338
357.539
353.307
349.417
345.868
342.683
339.759
336.986
334.3
331.76
329.388
327.047
324.921
323.303
393.176
381.53
373.642
367.412
362.029
357.323
353.182
349.405
345.935
342.785
339.929
337.279
334.772
332.391
330.087
327.785
325.725
324.252
388.807
378.843
372
366.334
361.364
356.939
352.876
349.226
345.909
342.837
340.039
337.519
335.181
332.896
330.648
328.541
326.69
325.109
374.946
373.871
369.469
364.745
360.168
355.953
352.173
348.798
345.687
342.714
340.001
337.676
335.576
333.427
331.255
329.239
327.566
326.345
380.875
373.09
367.046
362.347
358.276
354.49
351.028
347.974
345.186
342.477
339.925
337.704
335.732
333.791
331.804
329.925
328.367
327.109
374.403
368.252
363.24
359.309
355.979
352.693
349.511
346.719
344.283
341.911
339.573
337.511
335.762
334.047
332.207
330.424
328.978
327.961
363.911
361.208
358.878
355.94
353.283
350.656
347.958
345.475
343.315
341.227
339.139
337.265
335.654
334.069
332.379
330.751
329.441
328.446
363.952
359.099
355.629
353.211
350.977
348.772
346.477
344.278
342.306
340.433
338.595
336.927
335.465
334
332.41
330.868
329.644
328.759
351.346
352.905
352.245
350.758
348.965
347.075
345.139
343.24
341.468
339.784
338.144
336.633
335.26
333.849
332.322
330.864
329.724
328.897
346.092
348.919
349.492
348.747
347.365
345.704
343.948
342.245
340.685
339.202
337.739
336.344
335.03
333.672
332.232
330.866
329.79
328.994
342.189
347.099
347.926
347.196
345.94
344.481
342.944
341.468
340.099
338.765
337.412
336.081
334.797
333.477
332.098
330.804
329.783
329.015
343
346.747
347.059
346.148
344.886
343.531
342.163
340.855
339.616
338.385
337.111
335.828
334.578
333.309
332.008
330.793
329.804
329.017
348.597
347.391
346.551
345.243
343.93
342.701
341.528
340.385
339.256
338.102
336.883
335.629
334.391
333.152
331.911
330.756
329.775
328.942
350.46
348.059
346.186
344.479
343.118
342.034
341.023
339.988
338.928
337.825
336.65
335.434
334.227
333.038
331.866
330.759
329.768
328.88
350.927
348.391
345.705
343.728
342.446
341.525
340.63
339.669
338.664
337.608
336.476
335.298
334.114
332.955
331.825
330.738
329.716
328.772
353.179
348.655
345.081
342.982
341.887
341.125
340.318
339.41
338.447
337.429
336.336
335.186
334.025
332.898
331.816
330.758
329.721
328.721
355.257
348.853
344.297
342.229
341.4
340.815
340.11
339.264
338.341
337.357
336.291
335.16
334.009
332.891
331.815
330.761
329.716
328.684
358.432
349.581
344.281
342.087
341.225
340.673
340.024
339.221
338.319
337.344
336.284
335.16
334.02
332.91
331.835
330.784
329.738
328.723
295.238
295.243
295.26
295.288
295.33
295.385
295.457
295.546
295.653
295.782
295.932
296.106
296.306
296.532
296.786
297.067
297.376
297.713
298.074
298.457
298.859
299.275
299.701
300.133
300.563
300.988
301.401
301.797
302.17
302.516
302.829
303.106
303.344
303.539
303.689
303.794
303.85
303.859
303.82
303.734
303.6
303.42
303.196
302.928
302.619
302.269
301.881
301.457
300.998
300.505
299.982
299.428
298.847
298.239
297.606
296.95
296.271
295.571
294.851
294.113
293.356
292.583
291.794
290.989
290.17
289.337
288.49
287.631
286.76
285.877
284.983
284.078
283.162
282.235
281.299
280.353
279.397
278.432
277.458
276.474
275.482
274.48
273.47
272.451
271.423
270.387
269.342
268.288
267.225
266.154
265.074
263.986
262.889
261.783
260.668
259.544
258.412
257.271
256.121
254.961
253.793
252.616
251.429
250.234
249.029
247.814
246.591
245.357
244.114
242.862
241.6
240.328
239.046
237.754
236.452
235.14
233.819
232.486
231.144
229.791
228.427
227.053
225.669
224.273
222.867
221.45
220.022
218.583
217.132
215.671
214.198
212.714
211.218
209.71
208.191
206.66
205.117
203.563
201.996
200.417
198.825
197.222
195.605
193.977
192.336
190.682
189.015
187.335
185.642
183.936
182.217
180.485
178.739
176.98
175.207
173.421
171.621
169.807
167.979
166.138
164.282
162.413
160.53
158.633
156.723
154.799
152.862
150.913
148.951
146.98
144.994
143.01
141.003
139.018
137.001
135.03
133.035
131.111
129.201
127.393
295.145
295.151
295.166
295.193
295.234
295.289
295.359
295.447
295.554
295.682
295.833
296.008
296.209
296.437
296.693
296.976
297.292
297.636
298.005
298.396
298.806
299.232
299.667
300.107
300.547
300.98
301.401
301.804
302.184
302.535
302.853
303.134
303.375
303.572
303.724
303.829
303.887
303.895
303.856
303.768
303.633
303.452
303.226
302.956
302.645
302.294
301.904
301.477
301.016
300.521
299.996
299.44
298.857
298.248
297.613
296.955
296.275
295.574
294.853
294.114
293.357
292.582
291.792
290.987
290.168
289.334
288.488
287.628
286.757
285.874
284.98
284.074
283.158
282.232
281.296
280.35
279.395
278.43
277.456
276.472
275.48
274.479
273.468
272.449
271.422
270.385
269.34
268.286
267.224
266.153
265.073
263.985
262.887
261.782
260.667
259.544
258.411
257.27
256.12
254.961
253.793
252.615
251.429
250.233
249.028
247.814
246.59
245.357
244.114
242.862
241.599
240.328
239.046
237.754
236.452
235.141
233.819
232.487
231.144
229.791
228.428
227.054
225.669
224.274
222.868
221.451
220.023
218.584
217.133
215.672
214.199
212.715
211.219
209.711
208.192
206.661
205.119
203.564
201.997
200.418
198.827
197.223
195.607
193.978
192.337
190.683
189.016
187.337
185.644
183.938
182.219
180.487
178.741
176.982
175.209
173.423
171.623
169.809
167.981
166.14
164.284
162.415
160.532
158.635
156.724
154.801
152.863
150.914
148.951
146.981
144.994
143.01
141.002
139.014
136.999
135.017
133.031
131.08
129.174
127.326
294.958
294.962
294.976
295.001
295.039
295.091
295.16
295.245
295.351
295.478
295.629
295.805
296.009
296.241
296.502
296.789
297.118
297.474
297.856
298.262
298.688
299.13
299.583
300.041
300.497
300.946
301.382
301.798
302.19
302.551
302.877
303.165
303.411
303.612
303.766
303.873
303.93
303.939
303.898
303.808
303.671
303.487
303.258
302.985
302.671
302.316
301.923
301.493
301.029
300.532
300.004
299.446
298.861
298.25
297.614
296.954
296.273
295.571
294.849
294.108
293.35
292.576
291.785
290.98
290.16
289.326
288.48
287.621
286.749
285.866
284.972
284.067
283.152
282.226
281.29
280.344
279.389
278.424
277.45
276.467
275.475
274.473
273.464
272.445
271.417
270.381
269.336
268.283
267.221
266.15
265.07
263.982
262.885
261.779
260.664
259.541
258.409
257.268
256.118
254.959
253.791
252.614
251.427
250.232
249.027
247.812
246.589
245.356
244.113
242.861
241.598
240.327
239.045
237.753
236.452
235.14
233.818
232.486
231.143
229.79
228.427
227.053
225.669
224.273
222.867
221.45
220.022
218.583
217.133
215.671
214.198
212.714
211.218
209.711
208.192
206.661
205.118
203.563
201.997
200.418
198.826
197.223
195.607
193.978
192.337
190.683
189.016
187.336
185.644
183.938
182.219
180.486
178.741
176.982
175.209
173.422
171.622
169.808
167.981
166.139
164.284
162.414
160.531
158.634
156.723
154.799
152.862
150.912
148.949
146.977
144.99
143.003
140.996
139
136.988
134.988
133.006
131.02
129.095
127.155
294.668
294.671
294.682
294.703
294.737
294.784
294.847
294.928
295.03
295.154
295.303
295.48
295.688
295.928
296.203
296.516
296.845
297.213
297.613
298.041
298.492
298.961
299.441
299.925
300.408
300.882
301.34
301.777
302.186
302.563
302.902
303.2
303.454
303.661
303.82
303.929
303.987
303.995
303.953
303.862
303.722
303.535
303.302
303.026
302.708
302.349
301.952
301.519
301.051
300.551
300.019
299.459
298.871
298.257
297.619
296.957
296.274
295.57
294.847
294.106
293.347
292.571
291.78
290.974
290.154
289.32
288.473
287.614
286.742
285.86
284.965
284.06
283.145
282.219
281.283
280.338
279.383
278.418
277.444
276.462
275.47
274.469
273.459
272.441
271.413
270.377
269.333
268.279
267.217
266.146
265.067
263.979
262.882
261.776
260.662
259.539
258.407
257.266
256.116
254.957
253.789
252.612
251.426
250.23
249.025
247.811
246.588
245.354
244.112
242.86
241.598
240.326
239.044
237.752
236.451
235.139
233.817
232.485
231.143
229.79
228.427
227.053
225.668
224.273
222.867
221.45
220.022
218.583
217.133
215.671
214.198
212.714
211.218
209.711
208.192
206.661
205.118
203.563
201.997
200.418
198.826
197.223
195.607
193.978
192.337
190.683
189.016
187.336
185.644
183.938
182.219
180.486
178.741
176.982
175.209
173.422
171.622
169.808
167.981
166.139
164.283
162.414
160.53
158.633
156.722
154.797
152.86
150.909
148.946
146.972
144.985
142.992
140.988
138.981
136.972
134.955
132.963
130.951
128.986
126.981
294.267
294.268
294.274
294.289
294.316
294.355
294.409
294.48
294.573
294.689
294.833
295.008
295.215
295.459
295.741
296.061
296.417
296.812
297.243
297.705
298.193
298.701
299.22
299.744
300.264
300.774
301.264
301.73
302.165
302.563
302.921
303.234
303.5
303.716
303.881
303.994
304.054
304.063
304.02
303.926
303.784
303.593
303.356
303.076
302.753
302.39
301.988
301.551
301.079
300.574
300.039
299.475
298.884
298.267
297.627
296.963
296.277
295.572
294.847
294.104
293.344
292.568
291.776
290.969
290.148
289.314
288.467
287.607
286.736
285.853
284.958
284.053
283.138
282.212
281.277
280.331
279.376
278.412
277.439
276.456
275.464
274.463
273.454
272.436
271.409
270.373
269.328
268.275
267.213
266.143
265.064
263.976
262.879
261.773
260.659
259.536
258.404
257.264
256.114
254.955
253.787
252.61
251.424
250.229
249.024
247.81
246.586
245.353
244.111
242.858
241.597
240.325
239.043
237.752
236.45
235.138
233.817
232.485
231.142
229.789
228.426
227.052
225.668
224.273
222.867
221.45
220.022
218.583
217.132
215.671
214.198
212.714
211.218
209.711
208.192
206.661
205.118
203.563
201.997
200.418
198.826
197.223
195.607
193.978
192.337
190.683
189.016
187.336
185.644
183.938
182.219
180.487
178.741
176.982
175.209
173.422
171.622
169.808
167.98
166.138
164.283
162.413
160.529
158.632
156.72
154.796
152.857
150.906
148.942
146.966
144.978
142.981
140.976
138.961
136.949
134.92
132.912
130.881
128.868
126.823
293.744
293.742
293.742
293.747
293.761
293.785
293.823
293.877
293.953
294.054
294.185
294.349
294.553
294.797
295.087
295.423
295.804
296.232
296.704
297.214
297.754
298.316
298.891
299.47
300.042
300.601
301.136
301.642
302.112
302.54
302.923
303.257
303.539
303.768
303.943
304.062
304.127
304.137
304.094
303.999
303.854
303.66
303.419
303.134
302.806
302.438
302.031
301.589
301.112
300.603
300.064
299.496
298.902
298.281
297.637
296.971
296.283
295.576
294.849
294.105
293.343
292.565
291.772
290.965
290.143
289.309
288.461
287.601
286.729
285.846
284.952
284.047
283.131
282.206
281.27
280.325
279.37
278.406
277.433
276.45
275.459
274.458
273.449
272.431
271.404
270.368
269.324
268.271
267.209
266.139
265.06
263.972
262.876
261.771
260.656
259.534
258.402
257.261
256.112
254.953
253.785
252.608
251.422
250.227
249.022
247.808
246.585
245.352
244.109
242.857
241.595
240.324
239.042
237.751
236.449
235.138
233.816
232.484
231.142
229.789
228.426
227.052
225.667
224.272
222.866
221.449
220.021
218.582
217.132
215.671
214.198
212.714
211.218
209.711
208.192
206.661
205.118
203.563
201.997
200.418
198.826
197.223
195.607
193.978
192.337
190.683
189.016
187.337
185.644
183.938
182.219
180.487
178.741
176.982
175.209
173.422
171.622
169.808
167.98
166.138
164.282
162.412
160.528
158.631
156.719
154.793
152.854
150.902
148.937
146.959
144.97
142.969
140.962
138.94
136.921
134.882
132.856
130.807
128.754
126.673
293.087
293.081
293.07
293.06
293.052
293.052
293.062
293.086
293.132
293.203
293.307
293.45
293.638
293.877
294.17
294.522
294.931
295.402
295.929
296.503
297.116
297.754
298.406
299.061
299.705
300.331
300.927
301.488
302.005
302.475
302.892
303.255
303.561
303.808
303.997
304.127
304.198
304.213
304.171
304.076
303.929
303.731
303.487
303.197
302.864
302.491
302.079
301.631
301.15
300.636
300.092
299.52
298.922
298.298
297.651
296.982
296.291
295.581
294.853
294.106
293.343
292.564
291.77
290.962
290.14
289.304
288.456
287.595
286.723
285.84
284.946
284.041
283.125
282.199
281.264
280.319
279.364
278.4
277.427
276.445
275.453
274.453
273.444
272.426
271.399
270.364
269.32
268.267
267.206
266.135
265.057
263.969
262.873
261.767
260.654
259.531
258.399
257.259
256.109
254.951
253.783
252.606
251.42
250.225
249.021
247.807
246.583
245.351
244.108
242.856
241.594
240.323
239.041
237.75
236.448
235.137
233.815
232.483
231.141
229.788
228.425
227.051
225.667
224.272
222.866
221.449
220.021
218.582
217.132
215.671
214.198
212.714
211.218
209.711
208.192
206.661
205.118
203.563
201.997
200.418
198.826
197.223
195.607
193.978
192.337
190.683
189.016
187.337
185.644
183.938
182.219
180.487
178.741
176.982
175.209
173.422
171.622
169.808
167.98
166.138
164.282
162.411
160.527
158.629
156.717
154.791
152.851
150.897
148.931
146.951
144.961
142.956
140.945
138.917
136.89
134.842
132.795
130.731
128.645
126.53
292.285
292.273
292.244
292.209
292.169
292.127
292.091
292.065
292.057
292.075
292.129
292.227
292.38
292.597
292.883
293.244
293.682
294.208
294.809
295.472
296.185
296.93
297.691
298.451
299.197
299.915
300.596
301.231
301.815
302.341
302.807
303.209
303.548
303.822
304.032
304.177
304.26
304.282
304.245
304.151
304.004
303.804
303.556
303.262
302.924
302.546
302.129
301.676
301.189
300.671
300.123
299.546
298.944
298.316
297.666
296.993
296.301
295.588
294.857
294.109
293.345
292.564
291.769
290.959
290.136
289.3
288.451
287.59
286.718
285.834
284.94
284.035
283.119
282.194
281.258
280.313
279.358
278.394
277.421
276.439
275.448
274.448
273.439
272.421
271.395
270.36
269.316
268.263
267.202
266.132
265.053
263.966
262.869
261.764
260.651
259.528
258.397
257.256
256.107
254.948
253.781
252.604
251.418
250.223
249.019
247.805
246.582
245.349
244.107
242.855
241.593
240.322
239.04
237.749
236.447
235.136
233.814
232.483
231.14
229.788
228.425
227.051
225.666
224.271
222.865
221.448
220.021
218.582
217.132
215.67
214.198
212.713
211.218
209.71
208.191
206.661
205.118
203.563
201.997
200.418
198.826
197.223
195.607
193.978
192.337
190.683
189.016
187.337
185.644
183.938
182.219
180.487
178.741
176.982
175.209
173.422
171.622
169.807
167.979
166.137
164.281
162.41
160.526
158.627
156.714
154.788
152.847
150.892
148.925
146.943
144.95
142.942
140.926
138.893
136.856
134.8
132.736
130.655
128.54
126.398
291.345
291.319
291.267
291.187
291.091
290.983
290.87
290.759
290.659
290.583
290.544
290.557
290.638
290.8
291.056
291.411
291.862
292.467
293.167
293.953
294.808
295.707
296.622
297.536
298.425
299.275
300.076
300.818
301.495
302.102
302.635
303.095
303.481
303.794
304.034
304.204
304.304
304.339
304.309
304.22
304.074
303.874
303.624
303.326
302.984
302.601
302.179
301.721
301.23
300.706
300.153
299.573
298.966
298.335
297.681
297.006
296.31
295.596
294.863
294.113
293.346
292.565
291.768
290.958
290.133
289.296
288.447
287.586
286.713
285.829
284.934
284.029
283.113
282.188
281.252
280.307
279.353
278.389
277.416
276.434
275.443
274.443
273.434
272.416
271.39
270.355
269.311
268.259
267.198
266.128
265.049
263.962
262.866
261.761
260.648
259.525
258.394
257.254
256.104
254.946
253.779
252.602
251.417
250.222
249.017
247.804
246.58
245.348
244.105
242.854
241.592
240.32
239.039
237.748
236.447
235.135
233.814
232.482
231.14
229.787
228.424
227.05
225.666
224.271
222.865
221.448
220.02
218.582
217.131
215.67
214.197
212.713
211.218
209.71
208.191
206.661
205.118
203.563
201.997
200.418
198.826
197.223
195.607
193.978
192.337
190.683
189.016
187.337
185.644
183.938
182.219
180.487
178.741
176.982
175.209
173.422
171.621
169.807
167.979
166.136
164.28
162.409
160.524
158.625
156.712
154.784
152.843
150.887
148.918
146.934
144.938
142.928
140.906
138.868
136.822
134.756
132.677
130.578
128.443
126.276
290.214
290.18
290.084
289.955
289.783
289.577
289.345
289.096
288.848
288.61
288.41
288.265
288.202
288.251
288.434
288.778
289.304
289.914
290.713
291.657
292.721
293.846
294.994
296.139
297.242
298.292
299.27
300.17
300.983
301.708
302.34
302.882
303.337
303.706
303.991
304.195
304.321
304.375
304.358
304.277
304.135
303.937
303.686
303.386
303.041
302.654
302.227
301.765
301.269
300.741
300.184
299.599
298.988
298.354
297.697
297.019
296.32
295.603
294.868
294.116
293.348
292.565
291.767
290.956
290.131
289.293
288.443
287.581
286.708
285.824
284.929
284.023
283.108
282.182
281.246
280.301
279.347
278.383
277.41
276.428
275.437
274.438
273.429
272.412
271.385
270.351
269.307
268.255
267.194
266.124
265.046
263.959
262.863
261.758
260.645
259.522
258.391
257.251
256.102
254.944
253.777
252.6
251.415
250.22
249.016
247.802
246.579
245.346
244.104
242.852
241.591
240.319
239.038
237.747
236.446
235.134
233.813
232.481
231.139
229.786
228.423
227.05
225.665
224.27
222.865
221.448
220.02
218.581
217.131
215.67
214.197
212.713
211.217
209.71
208.191
206.66
205.118
203.563
201.997
200.418
198.826
197.223
195.607
193.978
192.337
190.683
189.016
187.337
185.644
183.938
182.219
180.487
178.741
176.981
175.208
173.422
171.621
169.807
167.978
166.136
164.279
162.408
160.523
158.623
156.709
154.781
152.838
150.881
148.91
146.925
144.926
142.912
140.886
138.842
136.787
134.712
132.618
130.504
128.351
126.163
289.126
289.039
288.869
288.622
288.307
287.929
287.501
287.031
286.528
286.02
285.52
285.083
284.737
284.532
284.519
284.721
285.175
285.885
286.854
288.041
289.435
290.922
292.447
293.967
295.413
296.779
298.036
299.178
300.198
301.097
301.873
302.536
303.09
303.539
303.888
304.141
304.305
304.385
304.388
304.319
304.184
303.99
303.74
303.439
303.091
302.701
302.271
301.805
301.304
300.772
300.211
299.623
299.009
298.371
297.711
297.03
296.33
295.61
294.873
294.12
293.35
292.566
291.767
290.954
290.128
289.29
288.439
287.577
286.703
285.819
284.924
284.018
283.102
282.176
281.241
280.296
279.341
278.378
277.405
276.423
275.432
274.433
273.424
272.407
271.381
270.346
269.303
268.251
267.19
266.12
265.042
263.955
262.86
261.755
260.642
259.52
258.388
257.248
256.1
254.942
253.774
252.598
251.413
250.218
249.014
247.8
246.577
245.345
244.103
242.851
241.589
240.318
239.037
237.746
236.445
235.133
233.812
232.48
231.138
229.786
228.423
227.049
225.665
224.27
222.864
221.447
220.02
218.581
217.131
215.67
214.197
212.713
211.217
209.71
208.191
206.66
205.118
203.563
201.996
200.418
198.826
197.223
195.607
193.978
192.337
190.683
189.017
187.337
185.644
183.938
182.219
180.487
178.741
176.981
175.208
173.421
171.621
169.806
167.978
166.135
164.278
162.407
160.521
158.621
156.706
154.777
152.834
150.876
148.903
146.915
144.914
142.896
140.865
138.816
136.752
134.668
132.562
130.434
128.265
126.059
287.735
287.627
287.4
287.049
286.594
286.022
285.326
284.513
283.601
282.627
281.635
280.659
279.789
279.083
278.633
278.498
278.749
279.468
280.616
282.167
284.101
286.21
288.39
290.549
292.571
294.451
296.158
297.684
299.027
300.187
301.18
302.019
302.716
303.278
303.715
304.036
304.25
304.366
304.394
304.342
304.218
304.029
303.782
303.482
303.133
302.741
302.309
301.839
301.335
300.8
300.236
299.644
299.027
298.387
297.724
297.041
296.338
295.616
294.878
294.122
293.352
292.566
291.766
290.952
290.126
289.287
288.436
287.573
286.699
285.814
284.918
284.012
283.096
282.171
281.235
280.29
279.336
278.372
277.399
276.418
275.427
274.427
273.419
272.402
271.376
270.342
269.298
268.246
267.186
266.116
265.038
263.952
262.856
261.752
260.639
259.517
258.386
257.246
256.097
254.939
253.772
252.596
251.411
250.216
249.012
247.799
246.576
245.343
244.101
242.85
241.588
240.317
239.036
237.745
236.444
235.133
233.811
232.48
231.138
229.785
228.422
227.049
225.665
224.27
222.864
221.447
220.019
218.581
217.131
215.669
214.197
212.713
211.217
209.71
208.191
206.66
205.118
203.563
201.996
200.418
198.827
197.223
195.607
193.979
192.337
190.683
189.017
187.337
185.644
183.938
182.219
180.487
178.741
176.981
175.208
173.421
171.62
169.806
167.977
166.134
164.277
162.405
160.519
158.619
156.703
154.774
152.829
150.869
148.895
146.905
144.901
142.88
140.844
138.789
136.718
134.625
132.509
130.367
128.185
125.964
286.64
286.529
286.191
285.656
284.891
283.934
282.806
281.495
279.997
278.294
276.45
274.544
272.672
270.981
269.607
268.722
268.492
269.098
270.436
272.529
275.312
278.483
281.819
285.082
288.112
290.868
293.336
295.501
297.36
298.913
300.225
301.317
302.209
302.923
303.475
303.882
304.158
304.318
304.376
304.344
304.234
304.053
303.81
303.512
303.165
302.772
302.337
301.866
301.36
300.822
300.255
299.661
299.042
298.399
297.734
297.049
296.344
295.621
294.881
294.124
293.352
292.565
291.764
290.95
290.123
289.283
288.432
287.568
286.694
285.809
284.913
284.007
283.091
282.165
281.23
280.285
279.33
278.367
277.394
276.412
275.422
274.422
273.414
272.397
271.372
270.337
269.294
268.242
267.182
266.113
265.035
263.948
262.853
261.749
260.636
259.514
258.383
257.243
256.094
254.937
253.77
252.594
251.409
250.214
249.01
247.797
246.574
245.342
244.1
242.848
241.587
240.316
239.035
237.744
236.443
235.132
233.81
232.479
231.137
229.784
228.422
227.048
225.664
224.269
222.863
221.447
220.019
218.58
217.13
215.669
214.197
212.713
211.217
209.71
208.191
206.66
205.118
203.563
201.996
200.418
198.827
197.223
195.607
193.979
192.337
190.683
189.017
187.337
185.644
183.938
182.219
180.487
178.741
176.981
175.208
173.421
171.62
169.805
167.976
166.133
164.276
162.404
160.517
158.616
156.7
154.77
152.824
150.863
148.887
146.895
144.888
142.864
140.823
138.763
136.685
134.584
132.457
130.303
128.11
125.876
285.846
285.592
285.052
284.299
283.343
282.124
280.523
278.483
275.98
273.08
269.826
266.312
262.694
259.244
256.237
253.957
252.788
252.994
254.466
257.345
261.423
266.303
271.543
276.68
281.43
285.668
289.367
292.529
295.157
297.308
299.06
300.478
301.616
302.513
303.201
303.705
304.049
304.255
304.344
304.332
304.234
304.062
303.825
303.53
303.183
302.791
302.356
301.884
301.377
300.838
300.269
299.673
299.052
298.408
297.741
297.054
296.348
295.624
294.882
294.125
293.352
292.564
291.762
290.947
290.119
289.279
288.427
287.564
286.689
285.804
284.908
284.002
283.085
282.159
281.224
280.279
279.325
278.361
277.389
276.407
275.417
274.417
273.409
272.392
271.367
270.333
269.29
268.238
267.178
266.109
265.031
263.945
262.849
261.745
260.632
259.511
258.38
257.241
256.092
254.934
253.768
252.592
251.406
250.212
249.008
247.795
246.572
245.34
244.099
242.847
241.586
240.315
239.034
237.743
236.442
235.131
233.81
232.478
231.136
229.784
228.421
227.048
225.664
224.269
222.863
221.446
220.019
218.58
217.13
215.669
214.196
212.712
211.217
209.71
208.191
206.66
205.118
203.563
201.996
200.418
198.827
197.223
195.607
193.979
192.338
190.684
189.017
187.337
185.644
183.938
182.219
180.487
178.741
176.981
175.208
173.421
171.62
169.805
167.976
166.132
164.275
162.402
160.516
158.614
156.697
154.766
152.819
150.857
148.879
146.885
144.875
142.848
140.803
138.737
136.653
134.544
132.409
130.244
128.041
125.796
285.637
285.256
284.544
283.521
282.153
280.371
278.091
275.206
271.579
267.114
261.789
255.746
249.439
243.397
238.058
233.883
231.401
231.013
233.097
237.42
243.44
250.541
258.201
265.81
272.875
279.167
284.536
289.024
292.656
295.563
297.85
299.637
301.032
302.115
302.939
303.541
303.951
304.199
304.313
304.317
304.228
304.062
303.829
303.537
303.193
302.801
302.367
301.895
301.387
300.847
300.277
299.68
299.058
298.413
297.745
297.057
296.35
295.624
294.882
294.124
293.35
292.561
291.759
290.944
290.115
289.275
288.423
287.559
286.684
285.798
284.902
283.996
283.08
282.154
281.218
280.273
279.319
278.356
277.383
276.402
275.412
274.412
273.404
272.388
271.362
270.328
269.285
268.234
267.174
266.105
265.027
263.941
262.846
261.742
260.629
259.508
258.377
257.238
256.089
254.932
253.765
252.589
251.404
250.21
249.006
247.793
246.571
245.339
244.097
242.846
241.584
240.313
239.033
237.742
236.441
235.13
233.809
232.477
231.135
229.783
228.42
227.047
225.663
224.268
222.863
221.446
220.018
218.58
217.13
215.669
214.196
212.712
211.217
209.71
208.191
206.66
205.118
203.563
201.996
200.418
198.827
197.223
195.607
193.979
192.338
190.684
189.017
187.337
185.644
183.938
182.219
180.487
178.74
176.981
175.208
173.42
171.619
169.804
167.975
166.132
164.274
162.401
160.514
158.612
156.695
154.762
152.814
150.851
148.872
146.876
144.863
142.832
140.783
138.713
136.622
134.506
132.363
130.19
127.977
125.723
286.396
285.938
285.067
283.803
282.036
279.747
276.748
272.735
267.593
261.151
253.315
244.276
234.785
225.742
217.865
211.792
208.306
207.969
210.629
216.538
224.997
234.674
244.796
254.876
264.306
272.761
279.843
285.822
290.562
294.212
296.976
299.057
300.631
301.832
302.744
303.414
303.873
304.152
304.284
304.297
304.215
304.054
303.825
303.536
303.194
302.804
302.372
301.9
301.392
300.852
300.282
299.684
299.061
298.415
297.746
297.058
296.35
295.624
294.881
294.122
293.347
292.558
291.756
290.94
290.111
289.27
288.417
287.553
286.679
285.793
284.897
283.99
283.074
282.148
281.213
280.268
279.314
278.35
277.378
276.397
275.406
274.407
273.4
272.383
271.358
270.324
269.281
268.23
267.17
266.101
265.024
263.937
262.842
261.739
260.626
259.505
258.374
257.235
256.087
254.929
253.763
252.587
251.402
250.208
249.004
247.792
246.569
245.337
244.096
242.844
241.583
240.312
239.031
237.741
236.44
235.129
233.808
232.476
231.135
229.783
228.42
227.047
225.663
224.268
222.862
221.446
220.018
218.579
217.13
215.668
214.196
212.712
211.217
209.71
208.191
206.66
205.118
203.563
201.997
200.418
198.827
197.223
195.607
193.979
192.338
190.684
189.017
187.337
185.645
183.939
182.219
180.487
178.74
176.981
175.207
173.42
171.619
169.804
167.974
166.131
164.273
162.4
160.512
158.609
156.692
154.759
152.81
150.845
148.864
146.866
144.851
142.817
140.764
138.689
136.593
134.471
132.321
130.139
127.919
125.657
288.411
287.85
286.793
285.274
283.214
280.505
276.928
271.828
265.082
256.455
245.836
233.529
220.569
208.179
197.451
189.493
185.385
184.283
187.968
197.145
210.343
223.628
236.121
247.841
258.696
268.502
276.991
284.064
289.611
293.713
296.683
298.862
300.484
301.703
302.628
303.317
303.799
304.097
304.241
304.262
304.185
304.029
303.804
303.52
303.183
302.797
302.366
301.896
301.39
300.85
300.281
299.683
299.06
298.414
297.745
297.056
296.348
295.621
294.878
294.119
293.344
292.555
291.752
290.935
290.106
289.265
288.412
287.548
286.673
285.788
284.891
283.985
283.069
282.143
281.207
280.262
279.308
278.345
277.373
276.391
275.401
274.402
273.395
272.378
271.353
270.319
269.277
268.226
267.166
266.097
265.02
263.934
262.839
261.735
260.623
259.502
258.371
257.232
256.084
254.927
253.76
252.585
251.4
250.206
249.003
247.79
246.568
245.336
244.094
242.843
241.582
240.311
239.03
237.74
236.439
235.128
233.807
232.476
231.134
229.782
228.419
227.046
225.662
224.267
222.862
221.445
220.018
218.579
217.129
215.668
214.196
212.712
211.217
209.709
208.191
206.66
205.118
203.563
201.997
200.418
198.827
197.223
195.607
193.979
192.338
190.684
189.017
187.337
185.645
183.939
182.219
180.487
178.74
176.981
175.207
173.42
171.619
169.803
167.974
166.13
164.271
162.398
160.51
158.607
156.689
154.755
152.805
150.84
148.857
146.857
144.839
142.803
140.746
138.668
136.566
134.439
132.282
130.093
127.866
125.596
291.655
290.952
289.739
288.097
285.947
283.077
279.147
273.544
265.974
256.176
244.015
229.922
215.08
201.005
188.98
179.863
174.882
176.394
181.924
192.197
207.015
221.678
233.965
244.925
255.846
266.475
275.835
283.359
289.087
293.281
296.287
298.487
300.158
301.44
302.408
303.126
303.636
303.967
304.141
304.185
304.125
303.98
303.765
303.488
303.156
302.774
302.348
301.88
301.376
300.838
300.27
299.674
299.052
298.406
297.738
297.05
296.342
295.616
294.872
294.113
293.338
292.549
291.746
290.93
290.101
289.26
288.407
287.543
286.668
285.782
284.885
283.979
283.063
282.137
281.202
280.257
279.303
278.34
277.367
276.386
275.396
274.397
273.39
272.374
271.349
270.315
269.273
268.221
267.162
266.093