/*--------------------------------*- C++ -*----------------------------------*\
| =========                 |                                                 |
| \\      /  F ield         | OpenFOAM: The Open Source CFD Toolbox           |
|  \\    /   O peration     | Version:  2.1.x                                 |
|   \\  /    A nd           | Web:      www.OpenFOAM.org                      |
|    \\/     M anipulation  |                                                 |
\*---------------------------------------------------------------------------*/
FoamFile
{
    version     2.0;
    format      ascii;
    class       surfaceScalarField;
    location    "0.004";
    object      phi;
}
// * * * * * * * * * * * * * * * * * * * * * * * * * * * * * * * * * * * * * //

dimensions      [0 3 -1 0 0 0 0];

internalField   nonuniform List<scalar> 
24170
(
1.93069e-06
1.33042e-06
1.15368e-06
7.77015e-07
8.46779e-07
3.06896e-07
7.22142e-07
1.24637e-07
6.57837e-07
6.43051e-08
6.32386e-07
2.54505e-08
6.43642e-07
-1.12554e-08
6.43656e-07
-1.41002e-11
6.09545e-07
3.41112e-08
6.05106e-07
4.43852e-09
6.3901e-07
-3.39042e-08
6.77995e-07
-3.89849e-08
6.85866e-07
-7.8706e-09
6.77902e-07
7.96373e-09
6.91465e-07
-1.35634e-08
7.54639e-07
-6.31736e-08
8.25038e-07
-7.03986e-08
-9.01635e-08
9.15201e-07
3.3304e-06
1.42266e-06
2.86157e-06
1.24585e-06
2.51417e-06
6.54292e-07
2.2629e-06
3.7591e-07
2.08216e-06
2.45046e-07
1.99821e-06
1.094e-07
1.96456e-06
2.23941e-08
1.91466e-06
4.98827e-08
1.84599e-06
1.02783e-07
1.83795e-06
1.24772e-08
1.88755e-06
-8.35047e-08
1.92965e-06
-8.10798e-08
1.92841e-06
-6.63437e-09
1.91993e-06
1.64463e-08
1.96279e-06
-5.64256e-08
2.05004e-06
-1.50421e-07
2.15547e-06
-1.75832e-07
-2.19315e-07
2.28462e-06
4.07178e-06
1.23521e-06
3.99484e-06
1.32279e-06
3.8497e-06
7.99433e-07
3.66996e-06
5.55648e-07
3.47878e-06
4.36234e-07
3.38912e-06
1.99058e-07
3.34928e-06
6.22323e-08
3.26575e-06
1.33411e-07
3.16626e-06
2.02274e-07
3.12352e-06
5.52159e-08
3.1579e-06
-1.1788e-07
3.21114e-06
-1.34321e-07
3.21865e-06
-1.41455e-08
3.20628e-06
2.8819e-08
3.24058e-06
-9.07319e-08
3.30684e-06
-2.16676e-07
3.38546e-06
-2.54451e-07
-2.95267e-07
3.46141e-06
4.46218e-06
9.8627e-07
4.56911e-06
1.21585e-06
4.60301e-06
7.65533e-07
4.61547e-06
5.43186e-07
4.50459e-06
5.47119e-07
4.43318e-06
2.70467e-07
4.46569e-06
2.97251e-08
4.47517e-06
1.23926e-07
4.43063e-06
2.46811e-07
4.35661e-06
1.29236e-07
4.33288e-06
-9.41459e-08
4.38153e-06
-1.82972e-07
4.42447e-06
-5.70838e-08
4.47687e-06
-2.3577e-08
4.53294e-06
-1.46811e-07
4.55295e-06
-2.36682e-07
4.55882e-06
-2.60323e-07
-2.84371e-07
4.54793e-06
4.7399e-06
7.60338e-07
4.96332e-06
9.92432e-07
5.15454e-06
5.74316e-07
5.27735e-06
4.20378e-07
5.21386e-06
6.10607e-07
5.12836e-06
3.55973e-07
5.17805e-06
-1.99732e-08
5.26772e-06
3.4256e-08
5.29163e-06
2.22906e-07
5.24637e-06
1.74496e-07
5.20262e-06
-5.04007e-08
5.2107e-06
-1.91045e-07
5.2729e-06
-1.19288e-07
5.36379e-06
-1.1446e-07
5.41402e-06
-1.97045e-07
5.41377e-06
-2.36435e-07
5.39041e-06
-2.36965e-07
-2.17288e-07
5.32333e-06
5.25925e-06
4.64266e-07
5.46565e-06
7.8603e-07
5.55768e-06
4.82283e-07
5.61695e-06
3.61113e-07
5.66775e-06
5.59806e-07
5.66687e-06
3.56851e-07
5.6514e-06
-4.50231e-09
5.67546e-06
1.01929e-08
5.74588e-06
1.52492e-07
5.80417e-06
1.16201e-07
5.80216e-06
-4.83867e-08
5.78934e-06
-1.78222e-07
5.83479e-06
-1.64745e-07
5.8594e-06
-1.39068e-07
5.89324e-06
-2.30879e-07
5.95547e-06
-2.98671e-07
5.94327e-06
-2.24761e-07
-1.75993e-07
5.90197e-06
5.78986e-06
2.35659e-07
5.97103e-06
6.04861e-07
6.02959e-06
4.23723e-07
6.02552e-06
3.65184e-07
6.09901e-06
4.86311e-07
6.13858e-06
3.17282e-07
6.12436e-06
9.71926e-09
6.15655e-06
-2.19988e-08
6.25539e-06
5.3657e-08
6.3455e-06
2.60913e-08
6.35662e-06
-5.95059e-08
6.31963e-06
-1.41235e-07
6.32307e-06
-1.68182e-07
6.36769e-06
-1.83689e-07
6.38423e-06
-2.47425e-07
6.3445e-06
-2.5894e-07
6.33387e-06
-2.14129e-07
-2.41015e-07
6.39889e-06
4.5092e-06
2.43252e-07
4.64376e-06
4.70293e-07
4.671e-06
3.96484e-07
4.64008e-06
3.96107e-07
4.6795e-06
4.46888e-07
4.72528e-06
2.715e-07
4.71882e-06
1.61879e-08
4.72055e-06
-2.37319e-08
4.7575e-06
1.67038e-08
4.81979e-06
-3.61964e-08
4.88084e-06
-1.20561e-07
4.9138e-06
-1.74196e-07
4.94169e-06
-1.96063e-07
4.95897e-06
-2.00969e-07
4.93847e-06
-2.26924e-07
4.95291e-06
-2.73383e-07
5.03911e-06
-3.00335e-07
-2.77394e-07
5.07549e-06
5.25107e-06
2.36506e-07
5.34409e-06
3.77274e-07
5.4075e-06
3.33071e-07
5.42763e-06
3.75982e-07
5.44761e-06
4.26904e-07
5.44584e-06
2.73268e-07
5.42029e-06
4.17427e-08
5.44094e-06
-4.43817e-08
5.49461e-06
-3.69654e-08
5.52521e-06
-6.67961e-08
5.53138e-06
-1.26732e-07
5.53477e-06
-1.77586e-07
5.56588e-06
-2.27169e-07
5.60742e-06
-2.42516e-07
5.63628e-06
-2.55778e-07
5.68203e-06
-3.19135e-07
5.72735e-06
-3.45657e-07
-2.75059e-07
5.72502e-06
6.15564e-06
9.30101e-08
6.21576e-06
3.17158e-07
6.2265e-06
3.22332e-07
6.24715e-06
3.55329e-07
6.30713e-06
3.66921e-07
6.34758e-06
2.32821e-07
6.33267e-06
5.6657e-08
6.31092e-06
-2.26385e-08
6.32065e-06
-4.66951e-08
6.35716e-06
-1.03305e-07
6.40784e-06
-1.77409e-07
6.4427e-06
-2.12445e-07
6.46285e-06
-2.47322e-07
6.4883e-06
-2.67962e-07
6.49997e-06
-2.67452e-07
6.49573e-06
-3.14897e-07
6.56358e-06
-4.13501e-07
-3.73164e-07
6.66168e-06
7.13606e-06
8.07939e-08
7.25818e-06
1.95028e-07
7.3462e-06
2.34313e-07
7.43519e-06
2.66342e-07
7.51981e-06
2.82304e-07
7.56527e-06
1.87357e-07
7.57276e-06
4.91711e-08
7.57683e-06
-2.67061e-08
7.59165e-06
-6.1517e-08
7.58153e-06
-9.31892e-08
7.54374e-06
-1.39614e-07
7.51107e-06
-1.79776e-07
7.48996e-06
-2.26212e-07
7.48855e-06
-2.66548e-07
7.50008e-06
-2.78985e-07
7.53583e-06
-3.50651e-07
7.60293e-06
-4.80602e-07
-3.17711e-07
7.54748e-06
8.4043e-06
4.40439e-08
8.41335e-06
1.85975e-07
8.42384e-06
2.23827e-07
8.46582e-06
2.24355e-07
8.53093e-06
2.17194e-07
8.57233e-06
1.45956e-07
8.58402e-06
3.74851e-08
8.58688e-06
-2.95692e-08
8.60588e-06
-8.0519e-08
8.62336e-06
-1.10663e-07
8.62484e-06
-1.41096e-07
8.63057e-06
-1.85507e-07
8.63971e-06
-2.35356e-07
8.65376e-06
-2.8059e-07
8.68617e-06
-3.11397e-07
8.714e-06
-3.78486e-07
8.67726e-06
-4.43854e-07
-4.12417e-07
8.77196e-06
9.64105e-06
-1.31207e-08
9.67797e-06
1.49048e-07
9.71282e-06
1.88977e-07
9.73343e-06
2.03747e-07
9.76812e-06
1.82506e-07
9.81873e-06
9.5345e-08
9.86669e-06
-1.04727e-08
9.91401e-06
-7.68937e-08
9.9577e-06
-1.24204e-07
9.99941e-06
-1.52375e-07
1.00322e-05
-1.73916e-07
1.00673e-05
-2.20602e-07
1.00957e-05
-2.63776e-07
1.01404e-05
-3.25212e-07
1.02007e-05
-3.71717e-07
1.01702e-05
-3.47978e-07
1.01026e-05
-3.76237e-07
-6.56117e-07
1.03463e-05
1.10039e-05
1.46927e-08
1.11376e-05
1.53486e-08
1.12527e-05
7.38593e-08
1.13677e-05
8.87823e-08
1.14954e-05
5.47837e-08
1.16043e-05
-1.35651e-08
1.16609e-05
-6.70175e-08
1.16664e-05
-8.24015e-08
1.16426e-05
-1.00381e-07
1.16126e-05
-1.22445e-07
1.15792e-05
-1.40505e-07
1.15468e-05
-1.88217e-07
1.15274e-05
-2.44365e-07
1.15185e-05
-3.16285e-07
1.1532e-05
-3.85175e-07
1.1596e-05
-4.12028e-07
1.16271e-05
-4.07341e-07
-5.66482e-07
1.15375e-05
1.30879e-05
2.34499e-07
1.30768e-05
2.64352e-08
1.31753e-05
-2.46587e-08
1.32961e-05
-3.20355e-08
1.33673e-05
-1.64342e-08
1.33823e-05
-2.85609e-08
1.33805e-05
-6.52392e-08
1.33938e-05
-9.56827e-08
1.34111e-05
-1.17672e-07
1.34302e-05
-1.41568e-07
1.34477e-05
-1.57997e-07
1.34499e-05
-1.90354e-07
1.34433e-05
-2.37839e-07
1.3426e-05
-2.9893e-07
1.34139e-05
-3.73139e-07
1.34541e-05
-4.52206e-07
1.34825e-05
-4.35712e-07
-3.17119e-07
1.32331e-05
1.50677e-05
1.77676e-07
1.50786e-05
1.55431e-08
1.51038e-05
-4.98563e-08
1.51171e-05
-4.54007e-08
1.51657e-05
-6.49631e-08
1.52691e-05
-1.31949e-07
1.53966e-05
-1.928e-07
1.55246e-05
-2.23671e-07
1.56278e-05
-2.20918e-07
1.56891e-05
-2.02834e-07
1.57059e-05
-1.74796e-07
1.56757e-05
-1.60101e-07
1.56145e-05
-1.76687e-07
1.55413e-05
-2.25719e-07
1.54592e-05
-2.9108e-07
1.53804e-05
-3.7335e-07
1.54107e-05
-4.66074e-07
-4.09281e-07
1.55029e-05
1.7459e-05
2.42622e-07
1.74731e-05
1.41073e-09
1.75152e-05
-9.19062e-08
1.76309e-05
-1.61099e-07
1.77902e-05
-2.24347e-07
1.79436e-05
-2.85264e-07
1.80633e-05
-3.12506e-07
1.81434e-05
-3.03767e-07
1.8192e-05
-2.69587e-07
1.82231e-05
-2.3394e-07
1.82504e-05
-2.0202e-07
1.8274e-05
-1.83741e-07
1.82803e-05
-1.83016e-07
1.82577e-05
-2.03137e-07
1.81998e-05
-2.3315e-07
1.80856e-05
-2.59136e-07
1.79258e-05
-3.06297e-07
-4.04771e-07
1.79213e-05
1.82116e-05
4.87876e-09
1.81364e-05
7.65989e-08
1.8037e-05
7.44126e-09
1.79798e-05
-1.03858e-07
1.79527e-05
-1.97236e-07
1.79551e-05
-2.87705e-07
1.79787e-05
-3.36105e-07
1.80277e-05
-3.52743e-07
1.81033e-05
-3.45174e-07
1.82004e-05
-3.31042e-07
1.83146e-05
-3.16241e-07
1.84312e-05
-3.00295e-07
1.85296e-05
-2.81411e-07
1.85944e-05
-2.68024e-07
1.86194e-05
-2.58068e-07
1.86225e-05
-2.62265e-07
1.85814e-05
-2.65194e-07
-2.57819e-07
1.84344e-05
1.62209e-05
-3.76995e-07
1.62838e-05
1.36989e-08
1.62234e-05
6.78305e-08
1.62029e-05
-8.3289e-08
1.62187e-05
-2.1308e-07
1.62163e-05
-2.85256e-07
1.6198e-05
-3.17867e-07
1.617e-05
-3.24749e-07
1.61373e-05
-3.12416e-07
1.61083e-05
-3.0207e-07
1.6101e-05
-3.08904e-07
1.61243e-05
-3.23639e-07
1.61728e-05
-3.29938e-07
1.6233e-05
-3.28137e-07
1.62898e-05
-3.14952e-07
1.63316e-05
-3.04042e-07
1.63642e-05
-2.97792e-07
-3.01939e-07
1.64083e-05
1.42071e-05
-1.76408e-07
1.43181e-05
-9.73633e-08
1.44919e-05
-1.05992e-07
1.46209e-05
-2.12292e-07
1.47046e-05
-2.96775e-07
1.47326e-05
-3.13177e-07
1.47123e-05
-2.97609e-07
1.46688e-05
-2.81205e-07
1.46216e-05
-2.65253e-07
1.45787e-05
-2.59159e-07
1.45375e-05
-2.67737e-07
1.44964e-05
-2.82561e-07
1.44549e-05
-2.88366e-07
1.44144e-05
-2.87651e-07
1.43808e-05
-2.81373e-07
1.43539e-05
-2.77124e-07
1.43294e-05
-2.73331e-07
-2.69985e-07
1.42975e-05
1.27419e-05
-1.56572e-07
1.27178e-05
-7.32209e-08
1.27793e-05
-1.67517e-07
1.28752e-05
-3.08244e-07
1.29554e-05
-3.76968e-07
1.30146e-05
-3.72402e-07
1.30508e-05
-3.33737e-07
1.30727e-05
-3.03079e-07
1.30917e-05
-2.84313e-07
1.31081e-05
-2.75558e-07
1.31126e-05
-2.72257e-07
1.31017e-05
-2.71672e-07
1.30807e-05
-2.67284e-07
1.30539e-05
-2.60902e-07
1.3029e-05
-2.56492e-07
1.30078e-05
-2.55903e-07
1.29922e-05
-2.57697e-07
-2.58368e-07
1.29806e-05
1.11369e-05
-1.53673e-07
1.1258e-05
-1.94313e-07
1.14129e-05
-3.22427e-07
1.15301e-05
-4.25487e-07
1.1604e-05
-4.509e-07
1.16495e-05
-4.17859e-07
1.16675e-05
-3.51782e-07
1.16716e-05
-3.07136e-07
1.16713e-05
-2.84022e-07
1.1669e-05
-2.73272e-07
1.16658e-05
-2.69067e-07
1.1662e-05
-2.6781e-07
1.16578e-05
-2.63149e-07
1.16527e-05
-2.55816e-07
1.16474e-05
-2.51119e-07
1.16405e-05
-2.49029e-07
1.16322e-05
-2.49441e-07
-2.44237e-07
1.16181e-05
1.01563e-05
-2.05966e-07
1.0317e-05
-3.54998e-07
1.04584e-05
-4.63844e-07
1.05505e-05
-5.17612e-07
1.05807e-05
-4.81061e-07
1.05513e-05
-3.88501e-07
1.04993e-05
-2.99758e-07
1.04549e-05
-2.62716e-07
1.0436e-05
-2.6514e-07
1.04471e-05
-2.84424e-07
1.04796e-05
-3.01561e-07
1.05187e-05
-3.06861e-07
1.05508e-05
-2.95295e-07
1.05672e-05
-2.72235e-07
1.05669e-05
-2.50786e-07
1.05526e-05
-2.34733e-07
1.05298e-05
-2.26593e-07
-2.17522e-07
1.0503e-05
9.01295e-06
-2.95147e-07
9.14559e-06
-4.87629e-07
9.22039e-06
-5.3865e-07
9.23821e-06
-5.3543e-07
9.26166e-06
-5.04514e-07
9.31738e-06
-4.44222e-07
9.40136e-06
-3.83732e-07
9.48227e-06
-3.43629e-07
9.54175e-06
-3.24619e-07
9.57674e-06
-3.19415e-07
9.58849e-06
-3.13314e-07
9.58275e-06
-3.01121e-07
9.56465e-06
-2.77187e-07
9.53815e-06
-2.45741e-07
9.50903e-06
-2.21658e-07
9.48107e-06
-2.06773e-07
9.4568e-06
-2.02328e-07
-1.95354e-07
9.43463e-06
8.00521e-06
-4.4618e-07
8.18615e-06
-6.68567e-07
8.3275e-06
-6.80001e-07
8.41548e-06
-6.23409e-07
8.44518e-06
-5.34216e-07
8.46733e-06
-4.66374e-07
8.49521e-06
-4.1161e-07
8.52568e-06
-3.74095e-07
8.54806e-06
-3.47e-07
8.55397e-06
-3.2533e-07
8.54201e-06
-3.01354e-07
8.51909e-06
-2.78195e-07
8.4953e-06
-2.53399e-07
8.47845e-06
-2.28891e-07
8.47286e-06
-2.16069e-07
8.47688e-06
-2.10797e-07
8.48568e-06
-2.11127e-07
-2.0092e-07
8.49125e-06
7.18748e-06
-5.74431e-07
7.39675e-06
-8.77837e-07
7.55677e-06
-8.40017e-07
7.62794e-06
-6.94584e-07
7.66274e-06
-5.69011e-07
7.68422e-06
-4.87853e-07
7.70259e-06
-4.29982e-07
7.71858e-06
-3.90093e-07
7.72844e-06
-3.56859e-07
7.72697e-06
-3.2386e-07
7.71398e-06
-2.88356e-07
7.69101e-06
-2.55231e-07
7.66168e-06
-2.24072e-07
7.62988e-06
-1.97084e-07
7.59887e-06
-1.85064e-07
7.5707e-06
-1.82629e-07
7.54501e-06
-1.8543e-07
-1.7837e-07
7.52246e-06
6.45511e-06
-7.77367e-07
6.70225e-06
-1.12498e-06
6.85813e-06
-9.95895e-07
6.90965e-06
-7.46105e-07
6.93031e-06
-5.8967e-07
6.93066e-06
-4.88201e-07
6.9159e-06
-4.15223e-07
6.87954e-06
-3.53731e-07
6.82315e-06
-3.00468e-07
6.75614e-06
-2.56855e-07
6.69329e-06
-2.25503e-07
6.64094e-06
-2.02879e-07
6.60067e-06
-1.83809e-07
6.56891e-06
-1.65317e-07
6.54006e-06
-1.56216e-07
6.50918e-06
-1.51748e-07
6.47314e-06
-1.49396e-07
-1.35573e-07
6.43035e-06
5.77665e-06
-9.75089e-07
5.94165e-06
-1.28999e-06
5.9489e-06
-1.00314e-06
5.9037e-06
-7.00909e-07
5.8111e-06
-4.97068e-07
5.68823e-06
-3.65335e-07
5.55144e-06
-2.78433e-07
5.41223e-06
-2.14517e-07
5.27883e-06
-1.67067e-07
5.15798e-06
-1.36005e-07
5.05224e-06
-1.19768e-07
4.95788e-06
-1.0852e-07
4.87165e-06
-9.75765e-08
4.79111e-06
-8.47766e-08
4.71489e-06
-7.99916e-08
4.64111e-06
-7.79736e-08
4.57295e-06
-8.12331e-08
-7.10841e-08
4.50846e-06
5.08585e-06
-1.0018e-06
4.83878e-06
-1.04292e-06
4.46038e-06
-6.2474e-07
4.10542e-06
-3.45954e-07
3.79593e-06
-1.87572e-07
3.53761e-06
-1.07015e-07
3.32799e-06
-6.88155e-08
3.16155e-06
-4.80767e-08
3.02948e-06
-3.49938e-08
2.92168e-06
-2.82082e-08
2.82858e-06
-2.66714e-08
2.74577e-06
-2.57128e-08
2.67256e-06
-2.43647e-08
2.60929e-06
-2.15007e-08
2.55173e-06
-2.24379e-08
2.49708e-06
-2.33214e-08
2.44688e-06
-3.10303e-08
-2.44019e-08
2.4002e-06
3.33177e-06
2.28885e-06
1.66411e-06
1.31816e-06
1.13059e-06
1.02357e-06
9.54758e-07
9.06681e-07
8.71688e-07
8.43479e-07
8.16808e-07
7.91095e-07
7.6673e-07
7.4523e-07
7.22792e-07
6.9947e-07
6.6844e-07
6.44038e-07
-8.72704e-08
8.72704e-08
-1.68298e-07
8.10273e-08
-2.46902e-07
7.86043e-08
-3.24026e-07
7.71239e-08
-3.9905e-07
7.50237e-08
-4.71252e-07
7.22026e-08
-5.39884e-07
6.86318e-08
-6.04116e-07
6.42323e-08
-6.63156e-07
5.904e-08
-7.16179e-07
5.30231e-08
-7.6246e-07
4.62806e-08
-8.01195e-07
3.87354e-08
-8.31587e-07
3.0392e-08
-8.53006e-07
2.14188e-08
-8.64757e-07
1.17514e-08
-8.66353e-07
1.59529e-09
-8.56842e-07
-9.51035e-09
-8.36214e-07
-2.06282e-08
-8.0416e-07
-3.20537e-08
-7.60726e-07
-4.34343e-08
-7.05945e-07
-5.47816e-08
-6.40089e-07
-6.58557e-08
-5.63687e-07
-7.64023e-08
-4.77058e-07
-8.66287e-08
-3.80872e-07
-9.61862e-08
-2.76048e-07
-1.04823e-07
-1.63549e-07
-1.12499e-07
-4.41555e-08
-1.19394e-07
8.09431e-08
-1.25099e-07
2.10775e-07
-1.29832e-07
3.44282e-07
-1.33507e-07
4.80427e-07
-1.36145e-07
6.18201e-07
-1.37774e-07
7.56633e-07
-1.38433e-07
8.94813e-07
-1.38179e-07
1.0319e-06
-1.37086e-07
1.16713e-06
-1.35227e-07
1.2998e-06
-1.32672e-07
1.4293e-06
-1.29499e-07
1.55509e-06
-1.25792e-07
1.67672e-06
-1.21634e-07
1.79382e-06
-1.17095e-07
1.90606e-06
-1.12244e-07
2.01321e-06
-1.0715e-07
2.1151e-06
-1.01883e-07
2.2116e-06
-9.64991e-08
2.30264e-06
-9.1047e-08
2.38822e-06
-8.55742e-08
2.46834e-06
-8.01281e-08
2.54309e-06
-7.47468e-08
2.61255e-06
-6.94595e-08
2.67684e-06
-6.42926e-08
2.73612e-06
-5.92729e-08
2.79054e-06
-5.4421e-08
2.84029e-06
-4.97496e-08
2.88556e-06
-4.52689e-08
2.92655e-06
-4.09904e-08
2.96347e-06
-3.69216e-08
2.99653e-06
-3.30633e-08
3.02595e-06
-2.94141e-08
3.05192e-06
-2.59749e-08
3.07467e-06
-2.27453e-08
3.09438e-06
-1.9719e-08
3.11127e-06
-1.6888e-08
3.12552e-06
-1.42468e-08
3.13731e-06
-1.1791e-08
3.14682e-06
-9.51165e-09
3.15422e-06
-7.398e-09
3.15966e-06
-5.44303e-09
3.16331e-06
-3.64382e-09
3.16531e-06
-2.00303e-09
3.16583e-06
-5.21978e-10
3.16491e-06
9.17711e-10
3.16268e-06
2.23552e-09
3.15927e-06
3.4087e-09
3.1548e-06
4.47312e-09
3.14935e-06
5.44721e-09
3.14301e-06
6.33915e-09
3.13586e-06
7.15228e-09
3.12796e-06
7.8936e-09
3.1194e-06
8.569e-09
3.11021e-06
9.18915e-09
3.10045e-06
9.75468e-09
3.09018e-06
1.02727e-08
3.07942e-06
1.07571e-08
3.06822e-06
1.1205e-08
3.05661e-06
1.16066e-08
3.04464e-06
1.19668e-08
3.03235e-06
1.2291e-08
3.01977e-06
1.25834e-08
3.00692e-06
1.28528e-08
2.99381e-06
1.31034e-08
2.98048e-06
1.33298e-08
2.96695e-06
1.35316e-08
2.95323e-06
1.37166e-08
2.93935e-06
1.38871e-08
2.9253e-06
1.40433e-08
2.91112e-06
1.41843e-08
2.89681e-06
1.43091e-08
2.88239e-06
1.44202e-08
2.86787e-06
1.45229e-08
2.85325e-06
1.46194e-08
2.83854e-06
1.47077e-08
2.82376e-06
1.47847e-08
2.80891e-06
1.4851e-08
2.79399e-06
1.49106e-08
2.77903e-06
1.4968e-08
2.764e-06
1.5023e-08
2.74893e-06
1.50718e-08
2.73382e-06
1.51116e-08
2.71868e-06
1.51432e-08
2.70351e-06
1.51709e-08
2.68831e-06
1.51982e-08
2.67308e-06
1.52249e-08
2.65784e-06
1.52476e-08
2.64257e-06
1.52642e-08
2.6273e-06
1.52749e-08
2.61201e-06
1.52823e-08
2.59672e-06
1.5289e-08
2.58143e-06
1.52958e-08
2.56613e-06
1.53014e-08
2.55082e-06
1.53043e-08
2.53552e-06
1.53034e-08
2.52022e-06
1.52984e-08
2.50493e-06
1.52904e-08
2.48965e-06
1.5281e-08
2.47438e-06
1.52716e-08
2.45912e-06
1.52626e-08
2.44386e-06
1.52535e-08
2.42862e-06
1.52428e-08
2.41339e-06
1.52291e-08
2.39818e-06
1.5212e-08
2.38299e-06
1.51925e-08
2.36781e-06
1.51728e-08
2.35266e-06
1.5154e-08
2.33752e-06
1.51363e-08
2.3224e-06
1.5118e-08
2.30731e-06
1.50969e-08
2.29224e-06
1.50721e-08
2.27719e-06
1.5045e-08
2.26217e-06
1.50179e-08
2.24718e-06
1.4992e-08
2.23221e-06
1.49666e-08
2.21727e-06
1.49403e-08
2.20236e-06
1.49118e-08
2.18748e-06
1.48809e-08
2.17263e-06
1.48486e-08
2.15782e-06
1.48169e-08
2.14303e-06
1.47869e-08
2.12827e-06
1.47586e-08
2.11354e-06
1.47308e-08
2.09884e-06
1.47028e-08
2.08416e-06
1.46744e-08
2.06952e-06
1.46472e-08
2.05489e-06
1.46219e-08
2.04029e-06
1.46e-08
2.02571e-06
1.45838e-08
2.01113e-06
1.45748e-08
1.99656e-06
1.45745e-08
1.98197e-06
1.45864e-08
1.96736e-06
1.46108e-08
1.95271e-06
1.46533e-08
1.93799e-06
1.47186e-08
1.92318e-06
1.48115e-08
1.90822e-06
1.4956e-08
1.89311e-06
1.51181e-08
1.87765e-06
1.54594e-08
1.86204e-06
1.56042e-08
1.84543e-06
1.66083e-08
1.82936e-06
1.60751e-08
1.80987e-06
1.94856e-08
1.79401e-06
1.58635e-08
1.76785e-06
2.61544e-08
1.75309e-06
1.47606e-08
1.71449e-06
3.86086e-08
1.69837e-06
1.6115e-08
1.63727e-06
6.10992e-08
1.61271e-06
2.45643e-08
1.48875e-06
1.23955e-07
4.78153e-08
1.44094e-06
-8.89043e-08
1.76175e-07
-1.7148e-07
1.63603e-07
-2.51333e-07
1.58458e-07
-3.29703e-07
1.55493e-07
-4.05933e-07
1.51254e-07
-4.79279e-07
1.45548e-07
-5.48882e-07
1.38235e-07
-6.13929e-07
1.2928e-07
-6.73591e-07
1.18702e-07
-7.26971e-07
1.06402e-07
-7.73154e-07
9.24641e-08
-8.11316e-07
7.68967e-08
-8.4067e-07
5.97461e-08
-8.60357e-07
4.11058e-08
-8.69812e-07
2.12063e-08
-8.68157e-07
-5.97092e-11
-8.54596e-07
-2.30713e-08
-8.28804e-07
-4.64201e-08
-7.90674e-07
-7.01836e-08
-7.40022e-07
-9.40861e-08
-6.76943e-07
-1.1786e-07
-6.01843e-07
-1.40956e-07
-5.14813e-07
-1.63433e-07
-4.16531e-07
-1.8491e-07
-3.07903e-07
-2.04814e-07
-1.89514e-07
-2.23212e-07
-6.22429e-08
-2.39771e-07
7.27562e-08
-2.54393e-07
2.14678e-07
-2.6702e-07
3.62364e-07
-2.77517e-07
5.14765e-07
-2.85909e-07
6.70858e-07
-2.92237e-07
8.2965e-07
-2.96565e-07
9.90198e-07
-2.98981e-07
1.15162e-06
-2.99601e-07
1.3131e-06
-2.98566e-07
1.47389e-06
-2.96017e-07
1.63332e-06
-2.921e-07
1.79078e-06
-2.86965e-07
1.94575e-06
-2.80764e-07
2.09776e-06
-2.73646e-07
2.24642e-06
-2.6575e-07
2.39139e-06
-2.57209e-07
2.53238e-06
-2.48149e-07
2.66919e-06
-2.38684e-07
2.80161e-06
-2.2892e-07
2.92951e-06
-2.18953e-07
3.05281e-06
-2.08872e-07
3.17143e-06
-1.98753e-07
3.28535e-06
-1.88664e-07
3.39456e-06
-1.78664e-07
3.49907e-06
-1.68807e-07
3.59893e-06
-1.59136e-07
3.6942e-06
-1.4969e-07
3.78495e-06
-1.40498e-07
3.87127e-06
-1.31586e-07
3.95325e-06
-1.22973e-07
4.03101e-06
-1.14676e-07
4.10465e-06
-1.06706e-07
4.1743e-06
-9.90673e-08
4.24009e-06
-9.17648e-08
4.30214e-06
-8.47986e-08
4.36059e-06
-7.81671e-08
4.41557e-06
-7.18663e-08
4.46721e-06
-6.58903e-08
4.51565e-06
-6.02311e-08
4.56102e-06
-5.48789e-08
4.60345e-06
-4.98252e-08
4.64307e-06
-4.50606e-08
4.68e-06
-4.05728e-08
4.71434e-06
-3.63504e-08
4.74619e-06
-3.2373e-08
4.77574e-06
-2.86292e-08
4.80309e-06
-2.51177e-08
4.82833e-06
-2.18295e-08
4.85155e-06
-1.87479e-08
4.87286e-06
-1.58594e-08
4.89235e-06
-1.31514e-08
4.91012e-06
-1.0616e-08
4.92625e-06
-8.23723e-09
4.94083e-06
-6.01195e-09
4.95394e-06
-3.92431e-09
4.96569e-06
-1.98743e-09
4.97617e-06
-2.14963e-10
4.98534e-06
1.59411e-09
4.99331e-06
3.23255e-09
5.00017e-06
4.74747e-09
5.00597e-06
6.16554e-09
5.01077e-06
7.49223e-09
5.01462e-06
8.73417e-09
5.01757e-06
9.89919e-09
5.01968e-06
1.09952e-08
5.02099e-06
1.20201e-08
5.02154e-06
1.29791e-08
5.02137e-06
1.38878e-08
5.02052e-06
1.47407e-08
5.01902e-06
1.55398e-08
5.01691e-06
1.62893e-08
5.01423e-06
1.69912e-08
5.011e-06
1.76499e-08
5.00725e-06
1.82718e-08
5.00301e-06
1.88598e-08
4.99831e-06
1.9414e-08
4.99316e-06
1.99346e-08
4.98759e-06
2.04235e-08
4.98161e-06
2.08852e-08
4.97525e-06
2.13235e-08
4.96854e-06
2.17393e-08
4.96148e-06
2.21315e-08
4.95409e-06
2.24994e-08
4.94639e-06
2.28457e-08
4.93839e-06
2.31745e-08
4.93009e-06
2.34888e-08
4.92153e-06
2.37888e-08
4.91271e-06
2.40726e-08
4.90363e-06
2.43395e-08
4.89431e-06
2.45916e-08
4.88476e-06
2.48321e-08
4.87499e-06
2.50638e-08
4.865e-06
2.52872e-08
4.8548e-06
2.55013e-08
4.8444e-06
2.57045e-08
4.8338e-06
2.58971e-08
4.82302e-06
2.60797e-08
4.81206e-06
2.62545e-08
4.80092e-06
2.64237e-08
4.7896e-06
2.65884e-08
4.77811e-06
2.6749e-08
4.76646e-06
2.69047e-08
4.75465e-06
2.70549e-08
4.74268e-06
2.71988e-08
4.73055e-06
2.73366e-08
4.71828e-06
2.74696e-08
4.70585e-06
2.75999e-08
4.69328e-06
2.77291e-08
4.68055e-06
2.78575e-08
4.66769e-06
2.79835e-08
4.65468e-06
2.8105e-08
4.64153e-06
2.82209e-08
4.62824e-06
2.83329e-08
4.61482e-06
2.84442e-08
4.60125e-06
2.85561e-08
4.58755e-06
2.86681e-08
4.57371e-06
2.87786e-08
4.55974e-06
2.88859e-08
4.54563e-06
2.89898e-08
4.53139e-06
2.9092e-08
4.51701e-06
2.91955e-08
4.50249e-06
2.93025e-08
4.48784e-06
2.94125e-08
4.47305e-06
2.95242e-08
4.45811e-06
2.96372e-08
4.44303e-06
2.97516e-08
4.42781e-06
2.98694e-08
4.41244e-06
2.99931e-08
4.39692e-06
3.01252e-08
4.38123e-06
3.02698e-08
4.36537e-06
3.04307e-08
4.34934e-06
3.06116e-08
4.3331e-06
3.08199e-08
4.31666e-06
3.10585e-08
4.29997e-06
3.13387e-08
4.28302e-06
3.1669e-08
4.26576e-06
3.20727e-08
4.24816e-06
3.25566e-08
4.2301e-06
3.31786e-08
4.21161e-06
3.39437e-08
4.19235e-06
3.4872e-08
4.17254e-06
3.64102e-08
4.15155e-06
3.70648e-08
4.12901e-06
4.20273e-08
4.10679e-06
3.80898e-08
4.07636e-06
5.65814e-08
4.05663e-06
3.44932e-08
4.00694e-06
8.82944e-08
3.99201e-06
3.1041e-08
3.91291e-06
1.40203e-07
3.88228e-06
5.51999e-08
3.76723e-06
2.39004e-07
1.72529e-07
3.64251e-06
-9.34074e-08
2.69582e-07
-1.82201e-07
2.52397e-07
-2.68111e-07
2.44367e-07
-3.52606e-07
2.39989e-07
-4.35038e-07
2.33685e-07
-5.14575e-07
2.25085e-07
-5.90378e-07
2.14038e-07
-6.61548e-07
2.0045e-07
-7.27114e-07
1.84268e-07
-7.86195e-07
1.65483e-07
-8.37846e-07
1.44115e-07
-8.81047e-07
1.20098e-07
-9.14904e-07
9.36028e-08
-9.38608e-07
6.48094e-08
-9.51193e-07
3.37918e-08
-9.52428e-07
1.17534e-09
-9.40637e-07
-3.4862e-08
-9.15663e-07
-7.13941e-08
-8.77277e-07
-1.0857e-07
-8.25358e-07
-1.46005e-07
-7.60136e-07
-1.83082e-07
-6.81612e-07
-2.19481e-07
-5.90561e-07
-2.54484e-07
-4.87763e-07
-2.87708e-07
-3.74088e-07
-3.1849e-07
-2.50156e-07
-3.47143e-07
-1.17324e-07
-3.72603e-07
2.33325e-08
-3.95049e-07
1.70857e-07
-4.14545e-07
3.23894e-07
-4.30555e-07
4.81342e-07
-4.43356e-07
6.421e-07
-4.52995e-07
8.05137e-07
-4.59603e-07
9.69513e-07
-4.63357e-07
1.13435e-06
-4.64441e-07
1.29884e-06
-4.63055e-07
1.46225e-06
-4.59428e-07
1.62396e-06
-4.53805e-07
1.78342e-06
-4.46421e-07
1.94015e-06
-4.37497e-07
2.09375e-06
-4.27247e-07
2.24387e-06
-4.15875e-07
2.39024e-06
-4.03578e-07
2.53264e-06
-3.90544e-07
2.67089e-06
-3.76936e-07
2.80487e-06
-3.62897e-07
2.93447e-06
-3.48557e-07
3.05964e-06
-3.34042e-07
3.18035e-06
-3.19465e-07
3.29661e-06
-3.04919e-07
3.40842e-06
-2.90478e-07
3.51583e-06
-2.76212e-07
3.61888e-06
-2.62185e-07
3.71764e-06
-2.48449e-07
3.81218e-06
-2.35046e-07
3.90261e-06
-2.22007e-07
3.98899e-06
-2.09359e-07
4.07144e-06
-1.97123e-07
4.15005e-06
-1.85319e-07
4.22494e-06
-1.73955e-07
4.29621e-06
-1.63036e-07
4.36397e-06
-1.52563e-07
4.42834e-06
-1.42536e-07
4.48943e-06
-1.32954e-07
4.54735e-06
-1.23813e-07
4.60222e-06
-1.151e-07
4.65415e-06
-1.06804e-07
4.70324e-06
-9.89152e-08
4.7496e-06
-9.1425e-08
4.79335e-06
-8.43181e-08
4.83457e-06
-7.75769e-08
4.87339e-06
-7.1191e-08
4.90991e-06
-6.51497e-08
4.94423e-06
-5.94351e-08
4.97643e-06
-5.40314e-08
5.00661e-06
-4.89241e-08
5.03485e-06
-4.41005e-08
5.06124e-06
-3.95469e-08
5.08588e-06
-3.52489e-08
5.10883e-06
-3.11909e-08
5.13018e-06
-2.73656e-08
5.15002e-06
-2.37637e-08
5.1684e-06
-2.0366e-08
5.18534e-06
-1.71482e-08
5.20102e-06
-1.40878e-08
5.21545e-06
-1.12021e-08
5.22869e-06
-8.49181e-09
5.2408e-06
-5.94448e-09
5.25184e-06
-3.5493e-09
5.26187e-06
-1.29547e-09
5.27093e-06
8.44267e-10
5.27908e-06
2.84645e-09
5.28636e-06
4.73348e-09
5.29282e-06
6.52107e-09
5.29849e-06
8.22199e-09
5.30341e-06
9.81399e-09
5.30764e-06
1.13122e-08
5.31121e-06
1.27253e-08
5.31414e-06
1.40558e-08
5.31648e-06
1.53096e-08
5.31826e-06
1.64949e-08
5.3195e-06
1.7616e-08
5.32024e-06
1.86756e-08
5.3205e-06
1.96764e-08
5.3203e-06
2.06216e-08
5.31967e-06
2.15148e-08
5.31863e-06
2.23593e-08
5.31722e-06
2.3158e-08
5.31543e-06
2.39136e-08
5.3133e-06
2.4629e-08
5.31084e-06
2.53071e-08
5.30807e-06
2.59508e-08
5.30499e-06
2.65616e-08
5.30164e-06
2.71401e-08
5.29803e-06
2.76877e-08
5.29416e-06
2.8207e-08
5.29005e-06
2.87019e-08
5.28571e-06
2.91751e-08
5.28114e-06
2.96283e-08
5.27637e-06
3.0061e-08
5.2714e-06
3.04723e-08
5.26624e-06
3.08631e-08
5.2609e-06
3.1236e-08
5.25539e-06
3.15936e-08
5.2497e-06
3.19382e-08
5.24386e-06
3.2271e-08
5.23785e-06
3.2592e-08
5.2317e-06
3.2901e-08
5.22541e-06
3.31988e-08
5.21897e-06
3.34859e-08
5.21241e-06
3.37636e-08
5.20571e-06
3.40327e-08
5.19889e-06
3.42942e-08
5.19194e-06
3.45492e-08
5.18487e-06
3.47992e-08
5.17768e-06
3.50447e-08
5.17038e-06
3.52851e-08
5.16297e-06
3.5519e-08
5.15544e-06
3.57467e-08
5.1478e-06
3.59699e-08
5.14006e-06
3.61911e-08
5.1322e-06
3.64112e-08
5.12424e-06
3.66297e-08
5.11617e-06
3.68453e-08
5.108e-06
3.70572e-08
5.09973e-06
3.72657e-08
5.09135e-06
3.74736e-08
5.08286e-06
3.7684e-08
5.07426e-06
3.78985e-08
5.06556e-06
3.81162e-08
5.05675e-06
3.83363e-08
5.04782e-06
3.85592e-08
5.03879e-06
3.87866e-08
5.02964e-06
3.90207e-08
5.02036e-06
3.92652e-08
5.01097e-06
3.95241e-08
5.00143e-06
3.98011e-08
4.99176e-06
4.01024e-08
4.98194e-06
4.04343e-08
4.97195e-06
4.08054e-08
4.96179e-06
4.12268e-08
4.95142e-06
4.17053e-08
4.94081e-06
4.22755e-08
4.92997e-06
4.29199e-08
4.91876e-06
4.37644e-08
4.9073e-06
4.4641e-08
4.89516e-06
4.60765e-08
4.88294e-06
4.70922e-08
4.86921e-06
5.01461e-08
4.85615e-06
5.01201e-08
4.83945e-06
5.87325e-08
4.82551e-06
5.20246e-08
4.80337e-06
7.8721e-08
4.78804e-06
4.98213e-08
4.7572e-06
1.19139e-07
4.73551e-06
5.27343e-08
4.69572e-06
1.79989e-07
4.64417e-06
1.06753e-07
4.60399e-06
2.79177e-07
2.78813e-07
4.49771e-06
-9.98924e-08
3.69475e-07
-1.98071e-07
3.50575e-07
-2.9309e-07
3.39386e-07
-3.86898e-07
3.33797e-07
-4.78627e-07
3.25415e-07
-5.6741e-07
3.13869e-07
-6.52345e-07
2.98972e-07
-7.32527e-07
2.80632e-07
-8.06895e-07
2.58636e-07
-8.74417e-07
2.33005e-07
-9.33979e-07
2.03677e-07
-9.84475e-07
1.70595e-07
-1.02487e-06
1.33996e-07
-1.05409e-06
9.40272e-08
-1.07103e-06
5.07385e-08
-1.07519e-06
5.32814e-09
-1.06485e-06
-4.51958e-08
-1.03973e-06
-9.65156e-08
-9.99442e-07
-1.48859e-07
-9.43914e-07
-2.01533e-07
-8.7329e-07
-2.53706e-07
-7.88113e-07
-3.04657e-07
-6.88989e-07
-3.53608e-07
-5.77012e-07
-3.99685e-07
-4.52869e-07
-4.42633e-07
-3.18543e-07
-4.81469e-07
-1.74645e-07
-5.16501e-07
-2.29342e-08
-5.46761e-07
1.35052e-07
-5.72531e-07
2.98217e-07
-5.9372e-07
4.65246e-07
-6.10385e-07
6.34917e-07
-6.22666e-07
8.06101e-07
-6.30788e-07
9.77775e-07
-6.3503e-07
1.14902e-06
-6.35691e-07
1.31906e-06
-6.33092e-07
1.48721e-06
-6.27574e-07
1.65287e-06
-6.1947e-07
1.81554e-06
-6.09086e-07
1.97477e-06
-5.96728e-07
2.13022e-06
-5.82701e-07
2.28164e-06
-5.67291e-07
2.42881e-06
-5.50747e-07
2.57155e-06
-5.33292e-07
2.70975e-06
-5.15133e-07
2.84332e-06
-4.96469e-07
2.97224e-06
-4.77477e-07
3.09651e-06
-4.58307e-07
3.21613e-06
-4.39081e-07
3.33112e-06
-4.19909e-07
3.44154e-06
-4.009e-07
3.54747e-06
-3.82145e-07
3.649e-06
-3.63715e-07
3.74621e-06
-3.45659e-07
3.83919e-06
-3.28026e-07
3.92805e-06
-3.10864e-07
4.0129e-06
-2.9421e-07
4.09386e-06
-2.78083e-07
4.17104e-06
-2.62497e-07
4.24454e-06
-2.47464e-07
4.3145e-06
-2.32993e-07
4.38103e-06
-2.19089e-07
4.44424e-06
-2.05748e-07
4.50425e-06
-1.92968e-07
4.56118e-06
-1.80741e-07
4.61513e-06
-1.69053e-07
4.66622e-06
-1.57894e-07
4.71456e-06
-1.47254e-07
4.76026e-06
-1.3712e-07
4.80341e-06
-1.27473e-07
4.84413e-06
-1.18295e-07
4.88251e-06
-1.09572e-07
4.91865e-06
-1.0129e-07
4.95265e-06
-9.34303e-08
4.98459e-06
-8.59728e-08
5.01456e-06
-7.88986e-08
5.04266e-06
-7.21938e-08
5.06895e-06
-6.58441e-08
5.09354e-06
-5.98313e-08
5.11648e-06
-5.41397e-08
5.13787e-06
-4.87505e-08
5.15776e-06
-4.36535e-08
5.17622e-06
-3.8824e-08
5.19332e-06
-3.42507e-08
5.20916e-06
-2.99257e-08
5.22378e-06
-2.58292e-08
5.23725e-06
-2.19592e-08
5.24961e-06
-1.83072e-08
5.26092e-06
-1.48565e-08
5.27122e-06
-1.15971e-08
5.28058e-06
-8.51417e-09
5.28904e-06
-5.60857e-09
5.29664e-06
-2.86474e-09
5.30344e-06
-2.84995e-10
5.30946e-06
2.20628e-09
5.31475e-06
4.52217e-09
5.31935e-06
6.71275e-09
5.32329e-06
8.78216e-09
5.32661e-06
1.07333e-08
5.32935e-06
1.25748e-08
5.33153e-06
1.43159e-08
5.33318e-06
1.59633e-08
5.33433e-06
1.75219e-08
5.33501e-06
1.89965e-08
5.33524e-06
2.03911e-08
5.33505e-06
2.17088e-08
5.33446e-06
2.2953e-08
5.33349e-06
2.41284e-08
5.33216e-06
2.52417e-08
5.33049e-06
2.62986e-08
5.32849e-06
2.73022e-08
5.32619e-06
2.82539e-08
5.3236e-06
2.9154e-08
5.32073e-06
3.00037e-08
5.31761e-06
3.08076e-08
5.31425e-06
3.15722e-08
5.31065e-06
3.23025e-08
5.30682e-06
3.30009e-08
5.30278e-06
3.36672e-08
5.29854e-06
3.42999e-08
5.29412e-06
3.48984e-08