/*--------------------------------*- C++ -*----------------------------------*\
| =========                 |                                                 |
| \\      /  F ield         | OpenFOAM: The Open Source CFD Toolbox           |
|  \\    /   O peration     | Version:  2.1.x                                 |
|   \\  /    A nd           | Web:      www.OpenFOAM.org                      |
|    \\/     M anipulation  |                                                 |
\*---------------------------------------------------------------------------*/
FoamFile
{
    version     2.0;
    format      ascii;
    class       surfaceScalarField;
    location    "0.004";
    object      phi_0;
}
// * * * * * * * * * * * * * * * * * * * * * * * * * * * * * * * * * * * * * //

dimensions      [0 3 -1 0 0 0 0];

internalField   nonuniform List<scalar> 
24170
(
1.92086e-06
1.31084e-06
1.14929e-06
7.71573e-07
8.42319e-07
3.06972e-07
7.16831e-07
1.25488e-07
6.52111e-07
6.47195e-08
6.27658e-07
2.4453e-08
6.39159e-07
-1.15004e-08
6.37297e-07
1.86223e-09
6.02578e-07
3.47184e-08
6.00355e-07
2.22356e-09
6.35745e-07
-3.53906e-08
6.73491e-07
-3.77456e-08
6.79093e-07
-5.60212e-09
6.70883e-07
8.20985e-09
6.8637e-07
-1.54866e-08
7.51134e-07
-6.47644e-08
8.20593e-07
-6.94591e-08
-8.42101e-08
9.04803e-07
3.32371e-06
1.36002e-06
2.85737e-06
1.23791e-06
2.50886e-06
6.55482e-07
2.2562e-06
3.78152e-07
2.076e-06
2.44912e-07
1.99372e-06
1.06739e-07
1.95913e-06
2.30825e-08
1.90653e-06
5.44653e-08
1.83822e-06
1.03027e-07
1.83363e-06
6.82011e-09
1.88465e-06
-8.6412e-08
1.92416e-06
-7.72598e-08
1.92005e-06
-1.49289e-09
1.91215e-06
1.6116e-08
1.95817e-06
-6.15111e-08
2.04639e-06
-1.52988e-07
2.15125e-06
-1.74311e-07
-2.13295e-07
2.28033e-06
4.06793e-06
1.16901e-06
3.99013e-06
1.31572e-06
3.84303e-06
8.02584e-07
3.66119e-06
5.59992e-07
3.47146e-06
4.34638e-07
3.3854e-06
1.92802e-07
3.34396e-06
6.45191e-08
3.25642e-06
1.42001e-07
3.15693e-06
2.02517e-07
3.11803e-06
4.57276e-08
3.15545e-06
-1.23832e-07
3.20693e-06
-1.28742e-07
3.21043e-06
-4.99813e-09
3.19752e-06
2.90314e-08
3.23378e-06
-9.77691e-08
3.3003e-06
-2.19514e-07
3.37784e-06
-2.5185e-07
-2.93327e-07
3.45787e-06
4.46188e-06
9.80197e-07
4.56322e-06
1.21437e-06
4.59776e-06
7.68048e-07
4.60617e-06
5.51575e-07
4.49293e-06
5.4788e-07
4.42719e-06
2.58543e-07
4.46303e-06
2.86789e-08
4.46904e-06
1.35995e-07
4.42011e-06
2.51446e-07
4.34591e-06
1.19927e-07
4.32701e-06
-1.04929e-07
4.37835e-06
-1.80088e-07
4.4207e-06
-4.73509e-08
4.47266e-06
-2.29219e-08
4.52548e-06
-1.50596e-07
4.54101e-06
-2.35038e-07
4.544e-06
-2.54837e-07
-2.8569e-07
4.53636e-06
4.74462e-06
7.65731e-07
4.96487e-06
9.94115e-07
5.15539e-06
5.77527e-07
5.26786e-06
4.39106e-07
5.1974e-06
6.18341e-07
5.11771e-06
3.3824e-07
5.17517e-06
-2.87853e-08
5.2635e-06
4.76598e-08
5.28076e-06
2.34186e-07
5.23301e-06
1.6768e-07
5.19183e-06
-6.37451e-08
5.20438e-06
-1.92638e-07
5.27038e-06
-1.13351e-07
5.36004e-06
-1.12588e-07
5.40443e-06
-1.94985e-07
5.39939e-06
-2.29993e-07
5.3717e-06
-2.27143e-07
-2.20704e-07
5.30671e-06
5.26992e-06
5.22741e-07
5.46241e-06
8.01627e-07
5.54998e-06
4.89958e-07
5.60687e-06
3.82212e-07
5.6562e-06
5.6902e-07
5.65387e-06
3.40569e-07
5.64009e-06
-1.50131e-08
5.66762e-06
2.01349e-08
5.73997e-06
1.61831e-07
5.79555e-06
1.12101e-07
5.7906e-06
-5.87889e-08
5.77943e-06
-1.81471e-07
5.8258e-06
-1.59724e-07
5.85007e-06
-1.3686e-07
5.88682e-06
-2.31729e-07
5.94596e-06
-2.8913e-07
5.92754e-06
-2.08728e-07
-1.8811e-07
5.89495e-06
5.79487e-06
3.62949e-07
5.96243e-06
6.34063e-07
6.01653e-06
4.3586e-07
6.01407e-06
3.84671e-07
6.08885e-06
4.94238e-07
6.12557e-06
3.0385e-07
6.11187e-06
-1.30514e-09
6.14954e-06
-1.75397e-08
6.2516e-06
5.97688e-08
6.33817e-06
2.55365e-08
6.34303e-06
-6.36477e-08
6.30489e-06
-1.43335e-07
6.31204e-06
-1.66877e-07
6.35773e-06
-1.82548e-07
6.36996e-06
-2.43954e-07
6.3298e-06
-2.48973e-07
6.32695e-06
-2.05877e-07
-2.5648e-07
6.39532e-06
4.50165e-06
3.20734e-07
4.63501e-06
5.00702e-07
4.65838e-06
4.12489e-07
4.62956e-06
4.1349e-07
4.67189e-06
4.51914e-07
4.7161e-06
2.59631e-07
4.70791e-06
6.89406e-09
4.71196e-06
-2.15928e-08
4.7524e-06
1.9324e-08
4.81658e-06
-3.86408e-08
4.87661e-06
-1.23674e-07
4.90762e-06
-1.7435e-07
4.93415e-06
-1.93403e-07
4.94901e-06
-1.97408e-07
4.92916e-06
-2.24109e-07
4.95062e-06
-2.70427e-07
5.03821e-06
-2.93474e-07
-2.82514e-07
5.06425e-06
5.23729e-06
2.99498e-07
5.33187e-06
4.06118e-07
5.39478e-06
3.4958e-07
5.41577e-06
3.92504e-07
5.43578e-06
4.31899e-07
5.43234e-06
2.63076e-07
5.40784e-06
3.13916e-08
5.4322e-06
-4.59512e-08
5.48708e-06
-3.55599e-08
5.51593e-06
-6.74949e-08
5.5211e-06
-1.28839e-07
5.52583e-06
-1.79078e-07
5.55861e-06
-2.26186e-07
5.6004e-06
-2.39193e-07
5.6304e-06
-2.54114e-07
5.67763e-06
-3.17655e-07
5.71999e-06
-3.35838e-07
-2.69034e-07
5.70651e-06
6.13893e-06
1.50492e-07
6.19656e-06
3.48488e-07
6.20845e-06
3.37692e-07
6.2339e-06
3.67051e-07
6.29649e-06
3.69309e-07
6.33436e-06
2.25211e-07
6.31681e-06
4.89403e-08
6.29627e-06
-2.54115e-08
6.30924e-06
-4.8533e-08
6.34849e-06
-1.06745e-07
6.39938e-06
-1.79723e-07
6.43276e-06
-2.12466e-07
6.4526e-06
-2.46021e-07
6.47788e-06
-2.64475e-07
6.48858e-06
-2.6481e-07
6.48876e-06
-3.17835e-07
6.56301e-06
-4.10091e-07
-3.43049e-07
6.63703e-06
7.10505e-06
1.18341e-07
7.23682e-06
2.16718e-07
7.32941e-06
2.45107e-07
7.42209e-06
2.74372e-07
7.50758e-06
2.83812e-07
7.55119e-06
1.81602e-07
7.55711e-06
4.30213e-08
7.5615e-06
-2.98029e-08
7.57606e-06
-6.30872e-08
7.56412e-06
-9.48098e-08
7.5255e-06
-1.41105e-07
7.49379e-06
-1.80752e-07
7.4745e-06
-2.26731e-07
7.47529e-06
-2.65267e-07
7.48994e-06
-2.79455e-07
7.52945e-06
-3.57347e-07
7.59002e-06
-4.70658e-07
-2.71755e-07
7.51872e-06
8.35966e-06
1.05316e-07
8.37888e-06
1.97497e-07
8.3971e-06
2.26892e-07
8.44543e-06
2.26037e-07
8.51359e-06
2.15659e-07
8.55486e-06
1.40328e-07
8.56618e-06
3.17046e-08
8.56978e-06
-3.34063e-08
8.58962e-06
-8.29275e-08
8.60695e-06
-1.1214e-07
8.6086e-06
-1.42751e-07
8.61523e-06
-1.87382e-07
8.62523e-06
-2.36736e-07
8.64084e-06
-2.80869e-07
8.67424e-06
-3.12857e-07
8.69857e-06
-3.81676e-07
8.66902e-06
-4.4111e-07
-4.00063e-07
8.79733e-06
9.58419e-06
-3.03616e-08
9.63764e-06
1.44053e-07
9.68073e-06
1.83806e-07
9.70725e-06
1.9951e-07
9.74641e-06
1.76496e-07
9.79992e-06
8.68256e-08
9.84937e-06
-1.77545e-08
9.89733e-06
-8.13608e-08
9.94137e-06
-1.26967e-07
9.98347e-06
-1.54241e-07
1.0017e-05
-1.763e-07
1.00526e-05
-2.22996e-07
1.00823e-05
-2.66384e-07
1.01293e-05
-3.27914e-07
1.01861e-05
-3.69615e-07
1.01494e-05
-3.45028e-07
1.0101e-05
-3.92639e-07
-6.55934e-07
1.03568e-05
1.09406e-05
-2.22755e-08
1.10984e-05
-1.37435e-08
1.12229e-05
5.92745e-08
1.13445e-05
7.7891e-08
1.14757e-05
4.53049e-08
1.15847e-05
-2.2191e-08
1.16392e-05
-7.21915e-08
1.16426e-05
-8.48037e-08
1.16177e-05
-1.02065e-07
1.15876e-05
-1.24149e-07
1.15548e-05
-1.43452e-07
1.15241e-05
-1.92346e-07
1.15068e-05
-2.49051e-07
1.15004e-05
-3.21505e-07
1.15187e-05
-3.87942e-07
1.15843e-05
-4.10647e-07
1.16071e-05
-4.15377e-07
-5.96289e-07
1.15474e-05
1.30214e-05
1.21676e-07
1.3036e-05
-2.83506e-08
1.31437e-05
-4.84466e-08
1.32674e-05
-4.57543e-08
1.33385e-05
-2.58482e-08
1.33532e-05
-3.69251e-08
1.33536e-05
-7.25154e-08
1.33694e-05
-1.00588e-07
1.33883e-05
-1.21018e-07
1.34081e-05
-1.43925e-07
1.34252e-05
-1.60527e-07
1.34269e-05
-1.94056e-07
1.34203e-05
-2.4245e-07
1.34037e-05
-3.04927e-07
1.33959e-05
-3.80128e-07
1.34383e-05
-4.53093e-07
1.34483e-05
-4.25303e-07
-3.42618e-07
1.31946e-05
1.50633e-05
2.30961e-07
1.50459e-05
-1.09222e-08
1.50666e-05
-6.91568e-08
1.50823e-05
-6.14369e-08
1.51371e-05
-8.07126e-08
1.52464e-05
-1.46216e-07
1.53774e-05
-2.03481e-07
1.55064e-05
-2.29579e-07
1.56082e-05
-2.22819e-07
1.56666e-05
-2.02354e-07
1.56799e-05
-1.73779e-07
1.56465e-05
-1.60695e-07
1.55837e-05
-1.7967e-07
1.55098e-05
-2.30982e-07
1.54282e-05
-2.98513e-07
1.53577e-05
-3.82609e-07
1.53982e-05
-4.65782e-07
-3.911e-07
1.54466e-05
1.73852e-05
1.80082e-07
1.74229e-05
-4.86415e-08
1.74794e-05
-1.25598e-07
1.76045e-05
-1.86515e-07
1.77679e-05
-2.4417e-07
1.79217e-05
-3.00001e-07
1.80403e-05
-3.22076e-07
1.81193e-05
-3.08597e-07
1.81674e-05
-2.70945e-07
1.81986e-05
-2.33517e-07
1.82261e-05
-2.01307e-07
1.82493e-05
-1.83835e-07
1.8254e-05
-1.84418e-07
1.82286e-05
-2.05558e-07
1.81656e-05
-2.35565e-07
1.80457e-05
-2.62651e-07
1.78944e-05
-3.14489e-07
-4.08849e-07
1.79121e-05
1.81783e-05
-2.51705e-08
1.80964e-05
3.32949e-08
1.80009e-05
-3.00784e-08
1.79473e-05
-1.32979e-07
1.79233e-05
-2.20157e-07
1.79282e-05
-3.04861e-07
1.79543e-05
-3.48163e-07
1.80065e-05
-3.60807e-07
1.80858e-05
-3.50226e-07
1.81863e-05
-3.34048e-07
1.83027e-05
-3.17725e-07
1.84194e-05
-3.00487e-07
1.85158e-05
-2.80848e-07
1.85774e-05
-2.67156e-07
1.85996e-05
-2.57723e-07
1.85993e-05
-2.62368e-07
1.85492e-05
-2.64459e-07
-2.60147e-07
1.84005e-05
1.62471e-05
-4.11775e-07
1.62804e-05
-4.28526e-11
1.62045e-05
4.57763e-08
1.61822e-05
-1.10643e-07
1.61977e-05
-2.35697e-07
1.61944e-05
-3.01508e-07
1.6175e-05
-3.28778e-07
1.61465e-05
-3.32257e-07
1.61142e-05
-3.18022e-07
1.60872e-05
-3.06981e-07
1.60829e-05
-3.13428e-07
1.61095e-05
-3.27075e-07
1.61606e-05
-3.32011e-07
1.62222e-05
-3.28765e-07
1.62792e-05
-3.14636e-07
1.63205e-05
-3.03662e-07
1.63541e-05
-2.98078e-07
-3.0216e-07
1.63961e-05
1.41742e-05
-2.76064e-07
1.43096e-05
-1.35461e-07
1.449e-05
-1.34532e-07
1.46146e-05
-2.35288e-07
1.46929e-05
-3.13971e-07
1.47163e-05
-3.24958e-07
1.46935e-05
-3.05981e-07
1.4649e-05
-2.87701e-07
1.46016e-05
-2.70681e-07
1.45588e-05
-2.64163e-07
1.45177e-05
-2.72284e-07
1.44767e-05
-2.86102e-07
1.44355e-05
-2.90786e-07
1.43959e-05
-2.89165e-07
1.43635e-05
-2.82275e-07
1.43375e-05
-2.77685e-07
1.43131e-05
-2.73632e-07
-2.70511e-07
1.42814e-05
1.27535e-05
-1.96816e-07
1.27174e-05
-9.93215e-08
1.27761e-05
-1.93325e-07
1.28709e-05
-3.29997e-07
1.29493e-05
-3.92416e-07
1.30067e-05
-3.82337e-07
1.30414e-05
-3.40719e-07
1.30624e-05
-3.0867e-07
1.30808e-05
-2.89058e-07
1.30961e-05
-2.79528e-07
1.30993e-05
-2.75479e-07
1.30873e-05
-2.74111e-07
1.30657e-05
-2.69107e-07
1.30389e-05
-2.62443e-07
1.30146e-05
-2.57898e-07
1.2994e-05
-2.5718e-07
1.29792e-05
-2.58789e-07
-2.59049e-07
1.29677e-05
1.1156e-05
-1.8443e-07
1.12679e-05
-2.11271e-07
1.14165e-05
-3.41861e-07
1.15291e-05
-4.42593e-07
1.15997e-05
-4.63025e-07
1.16426e-05
-4.25284e-07
1.16588e-05
-3.56919e-07
1.16618e-05
-3.11658e-07
1.16609e-05
-2.88134e-07
1.16582e-05
-2.7688e-07
1.16549e-05
-2.72145e-07
1.16511e-05
-2.70319e-07
1.16471e-05
-2.6511e-07
1.16421e-05
-2.57465e-07
1.16367e-05
-2.52494e-07
1.16297e-05
-2.50123e-07
1.16209e-05
-2.50063e-07
-2.44169e-07
1.16061e-05
1.01745e-05
-2.07272e-07
1.03258e-05
-3.62558e-07
1.04612e-05
-4.77239e-07
1.05486e-05
-5.29988e-07
1.05742e-05
-4.886e-07
1.05412e-05
-3.9229e-07
1.04875e-05
-3.03211e-07
1.04436e-05
-2.67776e-07
1.04267e-05
-2.71261e-07
1.04401e-05
-2.90256e-07
1.0474e-05
-3.0608e-07
1.05133e-05
-3.09602e-07
1.05445e-05
-2.96319e-07
1.05593e-05
-2.72249e-07
1.05573e-05
-2.50435e-07
1.05416e-05
-2.34495e-07
1.05181e-05
-2.26518e-07
-2.17423e-07
1.04913e-05
9.02618e-06
-2.43781e-07
9.14922e-06
-4.85594e-07
9.21772e-06
-5.45742e-07
9.23417e-06
-5.4644e-07
9.25965e-06
-5.14074e-07
9.31751e-06
-4.50149e-07
9.40172e-06
-3.87428e-07
9.48114e-06
-3.4719e-07
9.5384e-06
-3.28524e-07
9.57123e-06
-3.2309e-07
9.5812e-06
-3.1605e-07
9.57408e-06
-3.02474e-07
9.55487e-06
-2.77114e-07
9.52766e-06
-2.45041e-07
9.49828e-06
-2.21053e-07
9.47049e-06
-2.06704e-07
9.44663e-06
-2.02656e-07
-1.95731e-07
9.42494e-06
8.0102e-06
-4.57218e-07
8.19006e-06
-6.65456e-07
8.32954e-06
-6.85222e-07
8.41478e-06
-6.31681e-07
8.44234e-06
-5.41633e-07
8.46373e-06
-4.71543e-07
8.4916e-06
-4.15299e-07
8.52168e-06
-3.77266e-07
8.54293e-06
-3.49772e-07
8.54727e-06
-3.2743e-07
8.5339e-06
-3.02683e-07
8.51029e-06
-2.78868e-07
8.48672e-06
-2.5354e-07
8.47078e-06
-2.29097e-07
8.46633e-06
-2.1661e-07
8.4713e-06
-2.11669e-07
8.48052e-06
-2.11876e-07
-2.01007e-07
8.48579e-06
7.18913e-06
-5.75023e-07
7.39992e-06
-8.76241e-07
7.55861e-06
-8.43916e-07
7.62734e-06
-7.00409e-07
7.66013e-06
-5.74424e-07
7.68069e-06
-4.92103e-07
7.69886e-06
-4.33466e-07
7.71467e-06
-3.93085e-07
7.72398e-06
-3.59082e-07
7.72158e-06
-3.25025e-07
7.70746e-06
-2.88564e-07
7.68346e-06
-2.54866e-07
7.6534e-06
-2.23477e-07
7.62123e-06
-1.96934e-07
7.59027e-06
-1.85643e-07
7.56237e-06
-1.83776e-07
7.53704e-06
-1.86547e-07
-1.78897e-07
7.51493e-06
6.45909e-06
-7.74544e-07
6.70654e-06
-1.12369e-06
6.86086e-06
-9.98242e-07
6.9101e-06
-7.49646e-07
6.92921e-06
-5.9354e-07
6.92877e-06
-4.91662e-07
6.91295e-06
-4.17646e-07
6.87501e-06
-3.55143e-07
6.81723e-06
-3.01303e-07
6.74972e-06
-2.57513e-07
6.68728e-06
-2.26125e-07
6.63576e-06
-2.03349e-07
6.5963e-06
-1.84013e-07
6.56488e-06
-1.65519e-07
6.53588e-06
-1.56644e-07
6.50443e-06
-1.52318e-07
6.46763e-06
-1.49749e-07
-1.35429e-07
6.42416e-06
5.777e-06
-1.00362e-06
5.94383e-06
-1.29052e-06
5.95145e-06
-1.00587e-06
5.90552e-06
-7.03712e-07
5.81131e-06
-4.99333e-07
5.68675e-06
-3.67104e-07
5.5486e-06
-2.79494e-07
5.40843e-06
-2.14972e-07
5.27454e-06
-1.67412e-07
5.15362e-06
-1.36597e-07
5.04798e-06
-1.20477e-07
4.95362e-06
-1.08994e-07
4.86727e-06
-9.766e-08
4.7865e-06
-8.47505e-08
4.71e-06
-8.01396e-08
4.63598e-06
-7.83056e-08
4.56772e-06
-8.14863e-08
-7.10272e-08
4.50332e-06
5.0862e-06
-1.01248e-06
4.84227e-06
-1.0466e-06
4.4622e-06
-6.25787e-07
4.10538e-06
-3.46892e-07
3.79444e-06
-1.88396e-07
3.53514e-06
-1.07804e-07
3.32505e-06
-6.94037e-08
3.15846e-06
-4.83834e-08
3.02625e-06
-3.52071e-08
2.91817e-06
-2.85157e-08
2.8247e-06
-2.70065e-08
2.74163e-06
-2.5925e-08
2.66839e-06
-2.44125e-08
2.60515e-06
-2.15191e-08
2.54756e-06
-2.25473e-08
2.49277e-06
-2.35156e-08
2.44249e-06
-3.12078e-08
-2.44659e-08
2.39593e-06
3.33743e-06
2.29083e-06
1.66504e-06
1.31815e-06
1.12975e-06
1.02195e-06
9.52544e-07
9.04161e-07
8.68954e-07
8.40438e-07
8.13432e-07
7.87507e-07
7.63094e-07
7.41575e-07
7.19028e-07
6.95512e-07
6.64304e-07
6.39839e-07
-8.69653e-08
8.69653e-08
-1.67594e-07
8.06284e-08
-2.45784e-07
7.81903e-08
-3.22484e-07
7.67004e-08
-3.97077e-07
7.45922e-08
-4.6884e-07
7.17634e-08
-5.37026e-07
6.81856e-08
-6.00805e-07
6.37796e-08
-6.59388e-07
5.85824e-08
-7.1195e-07
5.25624e-08
-7.57769e-07
4.58194e-08
-7.96046e-07
3.8277e-08
-8.25986e-07
2.99395e-08
-8.46963e-07
2.09767e-08
-8.58284e-07
1.13211e-08
-8.59451e-07
1.16698e-09
-8.4955e-07
-9.90074e-09
-8.28575e-07
-2.09752e-08
-7.96217e-07
-3.23576e-08
-7.52525e-07
-4.36917e-08
-6.97536e-07
-5.49897e-08
-6.31524e-07
-6.60118e-08
-5.55021e-07
-7.65029e-08
-4.68347e-07
-8.66739e-08
-3.7217e-07
-9.6177e-08
-2.67411e-07
-1.04759e-07
-1.55031e-07
-1.12381e-07
-3.58107e-08
-1.1922e-07
8.90691e-08
-1.2488e-07
2.18638e-07
-1.29569e-07
3.51842e-07
-1.33204e-07
4.87648e-07
-1.35807e-07
6.25054e-07
-1.37405e-07
7.63093e-07
-1.38039e-07
9.00857e-07
-1.37765e-07
1.03751e-06
-1.36656e-07
1.1723e-06
-1.34785e-07
1.30452e-06
-1.32223e-07
1.43357e-06
-1.29046e-07
1.55891e-06
-1.2534e-07
1.68009e-06
-1.21185e-07
1.79675e-06
-1.16653e-07
1.90856e-06
-1.11811e-07
2.01529e-06
-1.0673e-07
2.11676e-06
-1.01477e-07
2.21287e-06
-9.61088e-08
2.30355e-06
-9.06739e-08
2.38877e-06
-8.52194e-08
2.46856e-06
-7.97923e-08
2.54299e-06
-7.44307e-08
2.61215e-06
-6.91632e-08
2.67617e-06
-6.40163e-08
2.73518e-06
-5.90163e-08
2.78937e-06
-5.41839e-08
2.8389e-06
-4.95313e-08
2.88397e-06
-4.5069e-08
2.92478e-06
-4.08082e-08
2.96153e-06
-3.67562e-08
2.99445e-06
-3.29139e-08
3.02373e-06
-2.92799e-08
3.04958e-06
-2.58549e-08
3.07222e-06
-2.26385e-08
3.09184e-06
-1.96245e-08
3.10865e-06
-1.68047e-08
3.12282e-06
-1.4174e-08
3.13455e-06
-1.17278e-08
3.14401e-06
-9.45721e-09
3.15136e-06
-7.35136e-09
3.15676e-06
-5.40345e-09
3.16037e-06
-3.61071e-09
3.16235e-06
-1.9757e-09
3.16285e-06
-4.99403e-10
3.16191e-06
9.35666e-10
3.15966e-06
2.24971e-09
3.15624e-06
3.41961e-09
3.15176e-06
4.4812e-09
3.14631e-06
5.4528e-09
3.13997e-06
6.34254e-09
3.13281e-06
7.15377e-09
3.12492e-06
7.89354e-09
3.11635e-06
8.56772e-09
3.10717e-06
9.18682e-09
3.09741e-06
9.75136e-09
3.08715e-06
1.02688e-08
3.07639e-06
1.07525e-08
3.06519e-06
1.12e-08
3.05359e-06
1.16013e-08
3.04163e-06
1.19612e-08
3.02935e-06
1.22852e-08
3.01677e-06
1.25775e-08
3.00392e-06
1.28471e-08
2.99082e-06
1.30978e-08
2.9775e-06
1.33243e-08
2.96397e-06
1.35263e-08
2.95026e-06
1.37115e-08
2.93638e-06
1.38823e-08
2.92234e-06
1.40388e-08
2.90816e-06
1.41802e-08
2.89385e-06
1.43052e-08
2.87944e-06
1.44166e-08
2.86492e-06
1.45197e-08
2.8503e-06
1.46166e-08
2.8356e-06
1.47053e-08
2.82081e-06
1.47827e-08
2.80596e-06
1.48493e-08
2.79105e-06
1.49094e-08
2.77609e-06
1.49672e-08
2.76106e-06
1.50226e-08
2.74599e-06
1.50717e-08
2.73088e-06
1.51118e-08
2.71574e-06
1.51438e-08
2.70057e-06
1.51719e-08
2.68537e-06
1.51996e-08
2.67014e-06
1.52266e-08
2.65489e-06
1.52497e-08
2.63962e-06
1.52666e-08
2.62435e-06
1.52777e-08
2.60906e-06
1.52853e-08
2.59377e-06
1.52924e-08
2.57847e-06
1.52995e-08
2.56316e-06
1.53055e-08
2.54785e-06
1.53087e-08
2.53255e-06
1.53081e-08
2.51724e-06
1.53035e-08
2.50195e-06
1.52958e-08
2.48666e-06
1.52867e-08
2.47138e-06
1.52776e-08
2.45611e-06
1.5269e-08
2.44085e-06
1.52601e-08
2.4256e-06
1.52497e-08
2.41037e-06
1.52362e-08
2.39515e-06
1.52194e-08
2.37995e-06
1.52003e-08
2.36477e-06
1.51808e-08
2.3496e-06
1.51623e-08
2.33446e-06
1.51449e-08
2.31933e-06
1.51268e-08
2.30423e-06
1.5106e-08
2.28915e-06
1.50815e-08
2.27409e-06
1.50546e-08
2.25906e-06
1.50277e-08
2.24406e-06
1.5002e-08
2.22908e-06
1.49769e-08
2.21413e-06
1.49508e-08
2.19921e-06
1.49225e-08
2.18432e-06
1.48918e-08
2.16946e-06
1.48597e-08
2.15463e-06
1.48282e-08
2.13983e-06
1.47984e-08
2.12506e-06
1.47702e-08
2.11032e-06
1.47426e-08
2.09561e-06
1.47147e-08
2.08092e-06
1.46865e-08
2.06626e-06
1.46594e-08
2.05163e-06
1.46343e-08
2.03701e-06
1.46125e-08
2.02242e-06
1.45963e-08
2.00783e-06
1.45874e-08
1.99324e-06
1.45871e-08
1.97864e-06
1.4599e-08
1.96402e-06
1.46232e-08
1.94935e-06
1.46656e-08
1.93462e-06
1.47306e-08
1.9198e-06
1.48233e-08
1.90483e-06
1.4967e-08
1.8897e-06
1.51294e-08
1.87424e-06
1.54678e-08
1.85862e-06
1.56162e-08
1.84201e-06
1.66089e-08
1.82592e-06
1.6093e-08
1.80645e-06
1.94679e-08
1.79056e-06
1.58932e-08
1.76444e-06
2.61154e-08
1.74966e-06
1.47823e-08
1.71108e-06
3.85786e-08
1.695e-06
1.60771e-08
1.63391e-06
6.10944e-08
1.60945e-06
2.44633e-08
1.48552e-06
1.2393e-07
4.76355e-08
1.43788e-06
-8.86118e-08
1.75577e-07
-1.70779e-07
1.62796e-07
-2.50208e-07
1.5762e-07
-3.28144e-07
1.54636e-07
-4.0393e-07
1.50379e-07
-4.76823e-07
1.44656e-07
-5.45964e-07
1.37326e-07
-6.10541e-07
1.28356e-07
-6.69725e-07
1.17766e-07
-7.22621e-07
1.05458e-07
-7.68318e-07
9.1517e-08
-8.05995e-07
7.59542e-08
-8.34873e-07
5.88174e-08
-8.54095e-07
4.01988e-08
-8.63108e-07
2.03334e-08
-8.60934e-07
-1.00669e-09
-8.46967e-07
-2.38673e-08
-8.20806e-07
-4.71371e-08
-7.82349e-07
-7.08146e-08
-7.31417e-07
-9.4623e-08
-6.68111e-07
-1.18296e-07
-5.9284e-07
-1.41283e-07
-5.05695e-07
-1.63648e-07
-4.07357e-07
-1.85012e-07
-2.98732e-07
-2.04802e-07
-1.80405e-07
-2.23086e-07
-5.32481e-08
-2.39537e-07
8.15916e-08
-2.5406e-07
2.23294e-07
-2.66582e-07
3.70717e-07
-2.76991e-07
5.22817e-07
-2.85304e-07
6.78573e-07
-2.91562e-07
8.36997e-07
-2.95829e-07
9.97151e-07
-2.98193e-07
1.15816e-06
-2.98771e-07
1.3192e-06
-2.97701e-07
1.47954e-06
-2.95126e-07
1.63851e-06
-2.91192e-07
1.79551e-06
-2.86047e-07
1.95002e-06
-2.79843e-07
2.10156e-06
-2.72728e-07
2.24975e-06
-2.64842e-07
2.39425e-06
-2.56316e-07
2.5348e-06
-2.47274e-07
2.67115e-06
-2.37832e-07
2.80314e-06
-2.28095e-07
2.93062e-06
-2.18157e-07
3.05351e-06
-2.08106e-07
3.17174e-06
-1.9802e-07
3.28527e-06
-1.87965e-07
3.39411e-06
-1.78e-07
3.49827e-06
-1.68178e-07
3.5978e-06
-1.58542e-07
3.69274e-06
-1.49131e-07
3.78318e-06
-1.39974e-07
3.86921e-06
-1.31095e-07
3.95092e-06
-1.22516e-07
4.02841e-06
-1.14251e-07
4.10181e-06
-1.06311e-07
4.17123e-06
-9.87024e-08
4.23681e-06
-9.1428e-08
4.29866e-06
-8.44887e-08
4.35691e-06
-7.78826e-08
4.41172e-06
-7.16059e-08
4.46319e-06
-6.56524e-08
4.51148e-06
-6.00144e-08
4.55671e-06
-5.4682e-08
4.599e-06
-4.96468e-08
4.6385e-06
-4.48993e-08
4.67531e-06
-4.04276e-08
4.70956e-06
-3.62198e-08
4.74131e-06
-3.22558e-08
4.77077e-06
-2.85246e-08
4.79805e-06
-2.50246e-08
4.82322e-06
-2.17469e-08
4.84637e-06
-1.86748e-08
4.86762e-06
-1.57952e-08
4.88706e-06
-1.30953e-08
4.90478e-06
-1.05673e-08
4.92087e-06
-8.19524e-09
4.93541e-06
-5.97604e-09
4.94849e-06
-3.89398e-09
4.96021e-06
-1.96239e-09
4.97067e-06
-1.94469e-10
4.97981e-06
1.61063e-09
4.98777e-06
3.24501e-09
4.99461e-06
4.75651e-09
5.0004e-06
6.17142e-09
5.00519e-06
7.49522e-09
5.00903e-06
8.73457e-09
5.01198e-06
9.89738e-09
5.01409e-06
1.09914e-08
5.0154e-06
1.20142e-08
5.01595e-06
1.29716e-08
5.01579e-06
1.38788e-08
5.01494e-06
1.47304e-08
5.01345e-06
1.55282e-08
5.01135e-06
1.62767e-08
5.00868e-06
1.69775e-08
5.00546e-06
1.76354e-08
5.00172e-06
1.82566e-08
4.9975e-06
1.88439e-08
4.99281e-06
1.93975e-08
4.98767e-06
1.99175e-08
4.98211e-06
2.04059e-08
4.97616e-06
2.08673e-08
4.96982e-06
2.13052e-08
4.96312e-06
2.17207e-08
4.95608e-06
2.21126e-08
4.94871e-06
2.24803e-08
4.94103e-06
2.28265e-08
4.93304e-06
2.31551e-08
4.92477e-06
2.34693e-08
4.91623e-06
2.37692e-08
4.90743e-06
2.40529e-08
4.89838e-06
2.43198e-08
4.88908e-06
2.45719e-08
4.87955e-06
2.48124e-08
4.8698e-06
2.50442e-08
4.85983e-06
2.52676e-08
4.84966e-06
2.54817e-08
4.83928e-06
2.5685e-08
4.82871e-06
2.58776e-08
4.81796e-06
2.60604e-08
4.80702e-06
2.62353e-08
4.7959e-06
2.64047e-08
4.78461e-06
2.65695e-08
4.77315e-06
2.67302e-08
4.76152e-06
2.6886e-08
4.74973e-06
2.70363e-08
4.73779e-06
2.71803e-08
4.72569e-06
2.73183e-08
4.71344e-06
2.74515e-08
4.70104e-06
2.7582e-08
4.68849e-06
2.77114e-08
4.67579e-06
2.78399e-08
4.66295e-06
2.79661e-08
4.64997e-06
2.80878e-08
4.63685e-06
2.82038e-08
4.62359e-06
2.8316e-08
4.61019e-06
2.84274e-08
4.59665e-06
2.85396e-08
4.58298e-06
2.86517e-08
4.56916e-06
2.87624e-08
4.55522e-06
2.88699e-08
4.54114e-06
2.8974e-08
4.52692e-06
2.90763e-08
4.51257e-06
2.918e-08
4.49808e-06
2.92871e-08
4.48345e-06
2.93973e-08
4.46868e-06
2.95092e-08
4.45378e-06
2.96223e-08
4.43873e-06
2.97367e-08
4.42353e-06
2.98547e-08
4.40819e-06
2.99785e-08
4.39269e-06
3.01107e-08
4.37703e-06
3.02554e-08
4.3612e-06
3.04162e-08
4.34519e-06
3.05971e-08
4.32898e-06
3.08053e-08
4.31256e-06
3.10437e-08
4.29591e-06
3.13235e-08
4.27898e-06
3.16534e-08
4.26175e-06
3.20564e-08
4.24418e-06
3.25396e-08
4.22615e-06
3.31605e-08
4.20769e-06
3.39236e-08
4.18845e-06
3.48522e-08
4.16868e-06
3.63797e-08
4.14772e-06
3.70526e-08
4.12523e-06
4.19606e-08
4.10301e-06
3.81144e-08
4.07269e-06
5.64378e-08
4.05291e-06
3.45599e-08
4.00338e-06
8.81106e-08
3.98845e-06
3.101e-08
3.90941e-06
1.40127e-07
3.87891e-06
5.49646e-08
3.76393e-06
2.38915e-07
1.72227e-07
3.63933e-06
-9.31472e-08
2.68724e-07
-1.8154e-07
2.51189e-07
-2.67031e-07
2.4311e-07
-3.51095e-07
2.387e-07
-4.33084e-07
2.32367e-07
-5.12165e-07
2.23738e-07
-5.87498e-07
2.12659e-07
-6.58185e-07
1.99044e-07
-7.23255e-07
1.82836e-07
-7.81829e-07
1.64032e-07
-8.32967e-07
1.42655e-07
-8.75654e-07
1.18641e-07
-9.09001e-07
9.21639e-08
-9.32214e-07
6.34126e-08
-9.44346e-07
3.24648e-08
-9.44943e-07
-4.08958e-10
-9.32736e-07
-3.60748e-08
-9.07365e-07
-7.25085e-08
-8.6862e-07
-1.09559e-07
-8.16394e-07
-1.46849e-07
-7.50925e-07
-1.83764e-07
-6.72216e-07
-2.19992e-07
-5.81047e-07
-2.54817e-07
-4.78199e-07
-2.8786e-07
-3.64538e-07
-3.18462e-07
-2.40681e-07
-3.46944e-07
-1.07977e-07
-3.7224e-07
3.25048e-08
-3.94542e-07
1.79775e-07
-4.13852e-07
3.32525e-07
-4.29741e-07
4.89647e-07
-4.42427e-07
6.50047e-07
-4.51962e-07
8.12696e-07
-4.58478e-07
9.76658e-07
-4.62155e-07
1.14106e-06
-4.63176e-07
1.3051e-06
-4.6174e-07
1.46805e-06
-4.58076e-07
1.62929e-06
-4.52427e-07
1.78827e-06
-4.45028e-07
1.94453e-06
-4.361e-07
2.09765e-06
-4.25854e-07
2.24731e-06
-4.14496e-07
2.39321e-06
-4.0222e-07
2.53515e-06
-3.89212e-07
2.67295e-06
-3.75636e-07
2.80649e-06
-3.61634e-07
2.93567e-06
-3.47334e-07
3.06042e-06
-3.32862e-07
3.18073e-06
-3.18331e-07
3.2966e-06
-3.03832e-07
3.40804e-06
-2.8944e-07
3.51509e-06
-2.75223e-07
3.61779e-06
-2.61245e-07
3.71621e-06
-2.47558e-07
3.81044e-06
-2.34202e-07
3.90056e-06
-2.21211e-07
3.98665e-06
-2.08609e-07
4.06882e-06
-1.96419e-07
4.14716e-06
-1.84657e-07
4.2218e-06
-1.73336e-07
4.29283e-06
-1.62458e-07
4.36036e-06
-1.52024e-07
4.42451e-06
-1.42033e-07
4.48539e-06
-1.32486e-07
4.54312e-06
-1.23378e-07
4.5978e-06
-1.14697e-07
4.64955e-06
-1.06431e-07
4.69847e-06
-9.85704e-08
4.74468e-06
-9.11066e-08
4.78828e-06
-8.40246e-08
4.82937e-06
-7.73067e-08
4.86805e-06
-7.09425e-08
4.90445e-06
-6.49215e-08
4.93865e-06
-5.9226e-08
4.97074e-06
-5.384e-08
5.00082e-06
-4.87491e-08
5.02896e-06
-4.39409e-08
5.05527e-06
-3.94016e-08
5.07982e-06
-3.51169e-08
5.1027e-06
-3.10712e-08
5.12398e-06
-2.72573e-08
5.14375e-06
-2.3666e-08
5.16207e-06
-2.02784e-08
5.17894e-06
-1.70697e-08
5.19457e-06
-1.40176e-08
5.20895e-06
-1.11399e-08
5.22215e-06
-8.43692e-09
5.23421e-06
-5.89633e-09
5.24522e-06
-3.50743e-09
5.25521e-06
-1.25939e-09
5.26423e-06
8.75078e-10
5.27235e-06
2.87231e-09
5.27961e-06
4.75484e-09
5.28605e-06
6.53812e-09
5.29169e-06
8.23523e-09
5.2966e-06
9.82354e-09
5.30081e-06
1.13185e-08
5.30435e-06
1.27285e-08
5.30728e-06
1.40561e-08
5.3096e-06
1.53073e-08
5.31137e-06
1.64901e-08
5.31261e-06
1.7609e-08
5.31334e-06
1.86665e-08
5.31359e-06
1.96653e-08
5.31339e-06
2.06088e-08
5.31275e-06
2.15004e-08
5.31171e-06
2.23434e-08
5.31029e-06
2.31407e-08
5.30851e-06
2.3895e-08
5.30638e-06
2.46092e-08
5.30392e-06
2.52862e-08
5.30115e-06
2.59289e-08
5.29808e-06
2.65388e-08
5.29473e-06
2.71164e-08
5.29112e-06
2.76632e-08
5.28726e-06
2.81818e-08
5.28316e-06
2.8676e-08
5.27882e-06
2.91486e-08
5.27426e-06
2.96014e-08
5.2695e-06
3.00336e-08
5.26453e-06
3.04443e-08
5.25938e-06
3.08348e-08
5.25405e-06
3.12072e-08
5.24855e-06
3.15644e-08
5.24288e-06
3.19087e-08
5.23704e-06
3.22413e-08
5.23105e-06
3.25621e-08
5.22491e-06
3.28708e-08
5.21862e-06
3.31684e-08
5.21221e-06
3.34552e-08
5.20565e-06
3.37327e-08
5.19897e-06
3.40016e-08
5.19216e-06
3.4263e-08
5.18522e-06
3.45178e-08
5.17817e-06
3.47677e-08
5.17099e-06
3.50131e-08
5.16371e-06
3.52533e-08
5.15631e-06
3.54871e-08
5.1488e-06
3.57147e-08
5.14117e-06
3.59378e-08
5.13344e-06
3.61589e-08
5.1256e-06
3.63789e-08
5.11766e-06
3.65973e-08
5.10961e-06
3.68128e-08
5.10145e-06
3.70246e-08
5.09319e-06
3.7233e-08
5.08483e-06
3.74408e-08
5.07636e-06
3.76511e-08
5.06778e-06
3.78655e-08
5.05909e-06
3.80831e-08
5.0503e-06
3.83031e-08
5.0414e-06
3.85258e-08
5.03238e-06
3.87531e-08
5.02325e-06
3.8987e-08
5.01399e-06
3.92313e-08
5.00462e-06
3.94899e-08
4.9951e-06
3.97667e-08
4.98545e-06
4.00677e-08
4.97565e-06
4.03991e-08
4.96569e-06
4.07698e-08
4.95554e-06
4.11905e-08
4.94519e-06
4.16683e-08
4.93461e-06
4.22373e-08
4.92379e-06
4.2881e-08
4.9126e-06
4.37233e-08
4.90116e-06
4.45998e-08
4.88906e-06
4.60293e-08
4.87686e-06
4.70498e-08
4.86316e-06
5.00824e-08
4.85012e-06
5.00882e-08
4.83346e-06
5.86206e-08
4.81954e-06
5.20383e-08
4.79747e-06
7.85061e-08
4.78213e-06
4.98984e-08
4.75139e-06
1.18854e-07
4.72969e-06
5.27038e-08
4.68998e-06
1.7984e-07
4.63852e-06
1.06422e-07
4.59843e-06
2.79011e-07
2.78401e-07
4.49225e-06
-9.96772e-08
3.68402e-07
-1.97471e-07
3.48982e-07
-2.92083e-07
3.37722e-07
-3.85468e-07
3.32085e-07
-4.76758e-07
3.23658e-07
-5.65084e-07
3.12063e-07
-6.4954e-07
2.97115e-07
-7.29221e-07
2.78725e-07
-8.03066e-07
2.56681e-07
-8.70046e-07
2.31012e-07
-9.29047e-07
2.01656e-07
-9.78968e-07
1.68563e-07
-1.01878e-06
1.31976e-07
-1.04741e-06
9.20448e-08
-1.06377e-06
4.88194e-08
-1.06751e-06
3.33779e-09
-1.05662e-06
-4.69672e-08
-1.03101e-06
-9.81188e-08
-9.903e-07
-1.5027e-07
-9.34422e-07
-2.02727e-07
-8.63522e-07
-2.54664e-07
-7.78151e-07
-3.05363e-07
-6.78913e-07
-3.54056e-07
-5.66901e-07
-3.99872e-07
-4.42799e-07
-4.42565e-07
-3.08591e-07
-4.81152e-07
-1.64884e-07
-5.15947e-07
-1.3448e-08
-5.45978e-07
1.44293e-07
-5.71593e-07
3.07142e-07
-5.9259e-07
4.73805e-07
-6.0909e-07
6.43073e-07
-6.21229e-07
8.13825e-07
-6.29231e-07
9.85043e-07
-6.33373e-07
1.15582e-06
-6.33952e-07
1.32537e-06
-6.3129e-07
1.49302e-06
-6.25726e-07
1.65818e-06
-6.17592e-07
1.82035e-06
-6.07193e-07
1.97908e-06
-5.94832e-07
2.13404e-06
-5.80815e-07
2.28497e-06
-5.65425e-07
2.43166e-06
-5.48911e-07
2.57394e-06
-5.31493e-07
2.71168e-06
-5.13378e-07
2.84481e-06
-4.94763e-07
2.97331e-06
-4.75826e-07
3.09716e-06
-4.56713e-07
3.21637e-06
-4.37547e-07
3.33098e-06
-4.18437e-07
3.44103e-06
-3.99491e-07
3.54661e-06
-3.808e-07
3.64779e-06
-3.62433e-07
3.74468e-06
-3.4444e-07
3.83734e-06
-3.2687e-07
3.9259e-06
-3.09769e-07
4.01047e-06
-2.93174e-07
4.09116e-06
-2.77105e-07
4.16807e-06
-2.61576e-07
4.24133e-06
-2.46597e-07
4.31106e-06
-2.32179e-07
4.37736e-06
-2.18324e-07
4.44036e-06
-2.05032e-07
4.50017e-06
-1.92298e-07
4.5569e-06
-1.80114e-07
4.61067e-06
-1.68468e-07
4.66159e-06
-1.57349e-07
4.70977e-06
-1.46746e-07
4.75531e-06
-1.36647e-07
4.79832e-06
-1.27033e-07
4.83889e-06
-1.17886e-07
4.87715e-06
-1.09193e-07
4.91316e-06
-1.00938e-07
4.94704e-06
-9.31053e-08
4.97887e-06
-8.56722e-08
5.00875e-06
-7.8621e-08
5.03674e-06
-7.19377e-08
5.06295e-06
-6.56082e-08
5.08745e-06
-5.96144e-08
5.11032e-06
-5.39404e-08
5.13163e-06
-4.85677e-08
5.15145e-06
-4.34862e-08
5.16984e-06
-3.86711e-08
5.18688e-06
-3.41113e-08
5.20266e-06
-2.97989e-08
5.21724e-06
-2.57141e-08
5.23065e-06
-2.18551e-08
5.24297e-06
-1.82133e-08
5.25424e-06
-1.47723e-08
5.2645e-06
-1.15217e-08
5.27382e-06
-8.44699e-09
5.28224e-06
-5.54919e-09
5.28981e-06
-2.81247e-09
5.29659e-06
-2.40058e-10
5.30258e-06
2.24579e-09
5.30784e-06
4.55565e-09
5.31242e-06
6.74075e-09
5.31635e-06
8.80503e-09
5.31965e-06
1.07515e-08
5.32237e-06
1.25885e-08
5.32453e-06
1.43255e-08
5.32617e-06
1.59691e-08
5.32732e-06
1.75242e-08
5.32799e-06
1.89955e-08
5.32821e-06
2.03871e-08
5.32801e-06
2.1702e-08
5.32741e-06
2.29434e-08
5.32643e-06
2.41164e-08
5.3251e-06
2.52274e-08
5.32342e-06
2.62821e-08
5.32143e-06
2.72838e-08
5.31912e-06
2.82336e-08
5.31653e-06
2.9132e-08
5.31367e-06
2.99801e-08
5.31055e-06
3.07826e-08
5.30718e-06
3.15458e-08
5.30358e-06
3.22748e-08
5.29976e-06
3.2972e-08
5.29572e-06
3.36373e-08
5.29149e-06
3.4269e-08