/*--------------------------------*- C++ -*----------------------------------*\
| =========                 |                                                 |
| \\      /  F ield         | OpenFOAM: The Open Source CFD Toolbox           |
|  \\    /   O peration     | Version:  2.1.x                                 |
|   \\  /    A nd           | Web:      www.OpenFOAM.org                      |
|    \\/     M anipulation  |                                                 |
\*---------------------------------------------------------------------------*/
FoamFile
{
    version     2.0;
    format      ascii;
    class       volScalarField;
    location    "0.004";
    object      pMean;
}
// * * * * * * * * * * * * * * * * * * * * * * * * * * * * * * * * * * * * * //

dimensions      [0 2 -2 0 0 0 0];

internalField   nonuniform List<scalar> 
12225
(
255.036
237.693
230.405
227.732
225.792
223.846
221.68
219.434
217.006
214.607
211.961
209.246
206.07
202.677
198.632
193.111
186.826
172.338
252.007
237.447
230.5
227.796
225.824
223.847
221.665
219.42
216.994
214.59
211.978
209.215
206.122
202.665
198.651
193.635
186.975
179.124
250.138
237.688
231.039
228.086
225.985
223.952
221.73
219.446
217.029
214.602
212.037
209.229
206.228
202.728
198.965
194.253
188.949
183.045
248.506
237.865
231.606
228.436
226.22
224.144
221.893
219.572
217.154
214.72
212.179
209.425
206.475
203.187
199.603
195.524
191.117
186.55
246.917
237.913
232.143
228.82
226.503
224.362
222.12
219.754
217.361
214.937
212.443
209.779
206.945
203.876
200.592
197.057
193.41
189.959
245.46
237.837
232.611
229.229
226.809
224.622
222.395
220.039
217.655
215.24
212.793
210.219
207.534
204.675
201.703
198.649
195.644
192.9
244.071
237.622
232.961
229.638
227.105
224.869
222.641
220.327
217.965
215.591
213.194
210.735
208.206
205.586
202.932
200.314
197.834
195.612
243.219
237.396
233.184
229.972
227.388
225.101
222.879
220.592
218.262
215.925
213.586
211.232
208.854
206.442
204.037
201.727
199.587
197.703
242.613
237.191
233.329
230.257
227.657
225.335
223.105
220.856
218.574
216.282
214.002
211.738
209.489
207.252
205.058
202.986
201.101
199.476
241.917
236.95
233.427
230.517
227.947
225.593
223.353
221.14
218.914
216.687
214.489
212.335
210.231
208.175
206.191
204.346
202.703
201.289
241.434
236.74
233.5
230.783
228.283
225.929
223.686
221.498
219.337
217.198
215.099
213.063
211.101
209.221
207.44
205.809
204.368
203.125
241.018
236.533
233.546
231.021
228.618
226.302
224.067
221.911
219.823
217.783
215.797
213.888
212.073
210.363
208.769
207.323
206.06
204.981
240.577
236.36
233.602
231.251
228.966
226.719
224.527
222.416
220.397
218.462
216.607
214.839
213.169
211.615
210.19
208.914
207.804
206.858
240.521
236.34
233.704
231.505
229.349
227.192
225.065
223.015
221.072
219.243
217.517
215.89
214.365
212.957
211.678
210.544
209.564
208.731
240.529
236.372
233.843
231.79
229.765
227.71
225.673
223.711
221.856
220.126
218.521
217.029
215.641
214.366
213.22
212.211
211.338
210.594
240.53
236.537
234.124
232.169
230.239
228.285
226.348
224.48
222.718
221.09
219.601
218.233
216.967
215.81
214.776
213.872
213.09
212.415
240.703
236.793
234.472
232.604
230.76
228.896
227.058
225.291
223.626
222.091
220.698
219.434
218.276
217.219
216.276
215.45
214.733
214.111
241.242
237.316
235.001
233.161
231.345
229.513
227.729
226.044
224.469
223.019
221.709
220.53
219.456
218.475
217.595
216.828
216.162
215.581
242.038
237.961
235.531
233.657
231.86
230.053
228.296
226.652
225.135
223.749
222.5
221.379
220.36
219.429
218.595
217.866
217.23
216.671
242.658
238.514
236.05
234.11
232.265
230.446
228.695
227.071
225.595
224.262
223.065
221.986
221.003
220.104
219.302
218.6
217.986
217.439
243.058
239.023
236.533
234.502
232.561
230.69
228.935
227.336
225.9
224.612
223.453
222.402
221.441
220.567
219.788
219.108
218.511
217.979
243.733
239.616
237.003
234.81
232.734
230.8
229.047
227.486
226.097
224.848
223.714
222.682
221.738
220.884
220.126
219.462
218.879
218.356
244.606
240.292
237.403
234.972
232.768
230.795
229.064
227.551
226.204
224.982
223.867
222.848
221.92
221.083
220.342
219.693
219.119
218.607
245.921
241.066
237.727
235.009
232.685
230.704
229.02
227.558
226.246
225.045
223.944
222.938
222.026
221.206
220.477
219.835
219.266
218.761
247.205
241.8
237.926
234.897
232.481
230.539
228.927
227.516
226.234
225.052
223.966
222.976
222.078
221.27
220.549
219.908
219.339
218.842
248.536
242.462
237.964
234.634
232.173
230.31
228.775
227.414
226.165
225.011
223.947
222.976
222.093
221.293
220.571
219.926
219.354
218.862
250.266
243.071
237.838
234.263
231.832
230.055
228.587
227.275
226.067
224.945
223.908
222.956
222.085
221.289
220.565
219.911
219.331
218.838
252.293
243.533
237.496
233.793
231.486
229.806
228.395
227.128
225.961
224.876
223.866
222.929
222.067
221.274
220.548
219.886
219.294
218.785
254.383
243.837
236.911
233.203
231.089
229.567
228.261
227.057
225.924
224.857
223.856
222.925
222.065
221.273
220.545
219.876
219.266
218.714
257.699
244.648
236.957
233.119
230.976
229.483
228.222
227.051
225.936
224.878
223.881
222.952
222.091
221.299
220.571
219.904
219.299
218.758
204.683
204.697
204.723
204.761
204.812
204.876
204.952
205.04
205.14
205.252
205.374
205.507
205.648
205.798
205.955
206.117
206.283
206.451
206.619
206.785
206.947
207.102
207.249
207.386
207.51
207.619
207.712
207.786
207.841
207.875
207.886
207.875
207.841
207.783
207.701
207.595
207.465
207.311
207.134
206.935
206.714
206.471
206.208
205.925
205.624
205.303
204.966
204.612
204.242
203.857
203.458
203.045
202.619
202.181
201.73
201.269
200.797
200.315
199.823
199.322
198.811
198.293
197.766
197.231
196.688
196.138
195.581
195.017
194.446
193.869
193.285
192.695
192.099
191.497
190.888
190.274
189.654
189.029
188.398
187.761
187.118
186.47
185.817
185.158
184.493
183.823
183.148
182.467
181.78
181.088
180.39
179.687
178.978
178.263
177.543
176.817
176.085
175.348
174.604
173.855
173.1
172.339
171.572
170.799
170.02
169.235
168.444
167.647
166.843
166.033
165.216
164.394
163.564
162.729
161.886
161.038
160.182
159.32
158.451
157.575
156.692
155.802
154.905
154.002
153.091
152.173
151.247
150.315
149.375
148.428
147.473
146.51
145.54
144.563
143.578
142.585
141.584
140.575
139.558
138.533
137.5
136.459
135.41
134.353
133.287
132.213
131.13
130.039
128.939
127.83
126.713
125.587
124.452
123.309
122.156
120.994
119.824
118.644
117.455
116.257
115.05
113.834
112.609
111.376
110.133
108.882
107.623
106.357
105.083
103.804
102.518
101.232
99.9411
98.6601
97.3749
96.1253
94.8743
93.7166
92.5894
91.6872
204.589
204.603
204.63
204.669
204.722
204.787
204.866
204.957
205.06
205.175
205.301
205.438
205.584
205.739
205.9
206.068
206.239
206.412
206.585
206.756
206.923
207.084
207.235
207.376
207.504
207.616
207.712
207.789
207.846
207.881
207.895
207.885
207.851
207.793
207.711
207.605
207.474
207.32
207.143
206.943
206.721
206.477
206.213
205.929
205.626
205.305
204.967
204.612
204.241
203.856
203.456
203.042
202.615
202.176
201.726
201.264
200.791
200.309
199.817
199.315
198.805
198.286
197.758
197.223
196.681
196.131
195.574
195.009
194.439
193.861
193.278
192.688
192.092
191.49
190.882
190.268
189.648
189.023
188.392
187.755
187.113
186.465
185.811
185.152
184.488
183.818
183.142
182.461
181.775
181.083
180.385
179.682
178.973
178.259
177.538
176.812
176.081
175.343
174.6
173.851
173.096
172.335
171.568
170.796
170.017
169.232
168.44
167.643
166.839
166.029
165.213
164.39
163.561
162.725
161.883
161.034
160.179
159.316
158.447
157.571
156.689
155.799
154.902
153.999
153.088
152.17
151.244
150.312
149.372
148.425
147.47
146.508
145.538
144.56
143.575
142.582
141.581
140.572
139.556
138.531
137.498
136.457
135.408
134.35
133.285
132.21
131.128
130.036
128.937
127.828
126.711
125.585
124.45
123.307
122.154
120.992
119.822
118.642
117.453
116.255
115.048
113.832
112.607
111.373
110.131
108.88
107.621
106.354
105.08
103.801
102.515
101.228
99.9365
98.6537
97.3684
96.1115
94.8629
93.6746
92.5275
91.4341
204.399
204.414
204.442
204.484
204.54
204.609
204.692
204.788
204.897
205.019
205.153
205.298
205.453
205.617
205.788
205.965
206.146
206.33
206.513
206.694
206.871
207.041
207.201
207.35
207.485
207.604
207.705
207.787
207.848
207.887
207.903
207.895
207.862
207.805
207.723
207.616
207.485
207.33
207.152
206.951
206.727
206.482
206.217
205.932
205.627
205.305
204.965
204.609
204.237
203.851
203.45
203.035
202.608
202.168
201.717
201.255
200.782
200.299
199.807
199.305
198.794
198.275
197.748
197.213
196.67
196.12
195.563
195
194.429
193.852
193.268
192.679
192.083
191.481
190.873
190.259
189.64
189.015
188.384
187.747
187.105
186.457
185.804
185.145
184.481
183.812
183.136
182.455
181.769
181.077
180.38
179.676
178.968
178.253
177.533
176.808
176.076
175.339
174.596
173.847
173.092
172.331
171.564
170.791
170.013
169.228
168.436
167.639
166.836
166.026
165.209
164.387
163.558
162.722
161.88
161.031
160.175
159.313
158.444
157.568
156.686
155.796
154.899
153.996
153.085
152.167
151.242
150.309
149.369
148.422
147.467
146.505
145.535
144.557
143.572
142.579
141.578
140.57
139.553
138.528
137.495
136.454
135.405
134.348
133.282
132.208
131.125
130.034
128.934
127.826
126.709
125.583
124.448
123.304
122.152
120.99
119.819
118.64
117.451
116.253
115.046
113.83
112.605
111.371
110.128
108.877
107.618
106.351
105.076
103.796
102.51
101.221
99.9291
98.6424
97.3562
96.0879
94.8352
93.6084
92.4266
91.2302
204.109
204.125
204.155
204.2
204.26
204.335
204.425
204.53
204.648
204.78
204.926
205.083
205.251
205.429
205.615
205.807
206.004
206.203
206.402
206.599
206.79
206.974
207.148
207.309
207.455
207.585
207.695
207.784
207.852
207.896
207.915
207.91
207.879
207.823
207.742
207.635
207.503
207.348
207.168
206.965
206.74
206.493
206.226
205.939
205.633
205.309
204.968
204.61
204.237
203.849
203.447
203.031
202.603
202.162
201.71
201.247
200.774
200.291
199.798
199.296
198.785
198.266
197.738
197.203
196.661
196.111
195.554
194.99
194.42
193.843
193.259
192.67
192.074
191.472
190.864
190.251
189.632
189.007
188.376
187.74
187.098
186.45
185.797
185.139
184.475
183.805
183.13
182.449
181.763
181.071
180.374
179.671
178.963
178.248
177.528
176.803
176.071
175.334
174.591
173.842
173.088
172.327
171.56
170.788
170.009
169.224
168.433
167.635
166.832
166.022
165.206
164.383
163.554
162.719
161.877
161.028
160.172
159.31
158.441
157.565
156.683
155.793
154.897
153.993
153.082
152.164
151.239
150.306
149.367
148.419
147.465
146.502
145.533
144.555
143.57
142.577
141.576
140.567
139.551
138.526
137.493
136.452
135.403
134.346
133.28
132.206
131.123
130.032
128.932
127.824
126.707
125.581
124.446
123.302
122.15
120.988
119.817
118.638
117.449
116.251
115.044
113.828
112.602
111.368
110.125
108.874
107.614
106.347
105.072
103.791
102.504
101.213
99.9195
98.6276
97.339
96.0582
94.7941
93.5365
92.3107
91.0407
203.711
203.728
203.761
203.811
203.876
203.959
204.058
204.173
204.304
204.45
204.61
204.784
204.97
205.167
205.373
205.586
205.805
206.026
206.246
206.465
206.677
206.881
207.074
207.252
207.414
207.557
207.68
207.78
207.856
207.907
207.932
207.931
207.903
207.849
207.768
207.661
207.529
207.372
207.19
206.986
206.759
206.51
206.24
205.951
205.643
205.317
204.974
204.614
204.239
203.85
203.446
203.029
202.6
202.158
201.705
201.241
200.767
200.283
199.79
199.287
198.776
198.257
197.729
197.194
196.651
196.101
195.544
194.981
194.41
193.833
193.25
192.661
192.065
191.463
190.856
190.243
189.623
188.999
188.368
187.732
187.09
186.443
185.79
185.132
184.468
183.799
183.124
182.443
181.757
181.066
180.368
179.666
178.957
178.243
177.523
176.798
176.067
175.33
174.587
173.838
173.083
172.323
171.556
170.784
170.005
169.22
168.429
167.632
166.828
166.019
165.203
164.38
163.551
162.715
161.873
161.025
160.169
159.307
158.438
157.563
156.68
155.79
154.894
153.99
153.079
152.162
151.236
150.304
149.364
148.417
147.462
146.5
145.53
144.553
143.568
142.575
141.574
140.565
139.549
138.524
137.491
136.45
135.401
134.344
133.278
132.204
131.121
130.03
128.93
127.822
126.705
125.579
124.444
123.3
122.148
120.986
119.815
118.636
117.447
116.249
115.041
113.825
112.6
111.366
110.122
108.871
107.611
106.342
105.067
103.784
102.496
101.203
99.9074
98.6101
97.3169
96.0236
94.7453
93.4598
92.1921
90.8723
203.194
203.213
203.249
203.304
203.377
203.468
203.578
203.706
203.852
204.016
204.195
204.39
204.599
204.82
205.052
205.293
205.539
205.788
206.038
206.285
206.525
206.756
206.973
207.175
207.358
207.52
207.658
207.772
207.859
207.919
207.952
207.956
207.932
207.88
207.8
207.693
207.56
207.402
207.219
207.012
206.783
206.532
206.26
205.968
205.657
205.329
204.983
204.622
204.245
203.853
203.448
203.03
202.599
202.156
201.702
201.237
200.762
200.277
199.783
199.28
198.769
198.249
197.721
197.186
196.643
196.093
195.536
194.972
194.401
193.824
193.241
192.652
192.056
191.455
190.848
190.234
189.615
188.991
188.36
187.725
187.083
186.436
185.783
185.125
184.461
183.792
183.117
182.437
181.751
181.06
180.363
179.66
178.952
178.238
177.518
176.793
176.062
175.325
174.582
173.834
173.079
172.319
171.552
170.78
170.001
169.216
168.425
167.628
166.825
166.015
165.199
164.377
163.548
162.712
161.87
161.022
160.166
159.304
158.435
157.56
156.677
155.788
154.891
153.988
153.077
152.159
151.234
150.301
149.362
148.415
147.46
146.498
145.528
144.55
143.565
142.572
141.572
140.563
139.546
138.522
137.489
136.448
135.399
134.342
133.276
132.202
131.119
130.028
128.928
127.82
126.703
125.577
124.442
123.298
122.146
120.984
119.813
118.633
117.445
116.246
115.039
113.823
112.597
111.363
110.119
108.867
107.606
106.337
105.061
103.777
102.487
101.192
99.8928
98.5905
97.29
95.9861
94.6902
93.3822
92.0761
90.7208
202.543
202.564
202.604
202.664
202.745
202.847
202.97
203.113
203.276
203.46
203.662
203.882
204.119
204.37
204.634
204.909
205.191
205.477
205.764
206.047
206.324
206.589
206.84
207.071
207.282
207.467
207.627
207.758
207.86
207.931
207.972
207.983
207.964
207.915
207.837
207.73
207.597
207.437
207.252
207.043
206.811
206.558
206.283
205.988
205.675
205.344
204.996
204.632
204.253
203.859
203.452
203.032
202.599
202.155
201.7
201.234
200.758
200.273
199.778
199.274
198.762
198.242
197.713
197.178
196.635
196.084
195.527
194.963
194.393
193.816
193.233
192.643
192.048
191.447
190.839
190.226
189.608
188.983
188.353
187.717
187.076
186.429
185.776
185.118
184.455
183.786
183.111
182.431
181.745
181.054
180.357
179.655
178.947
178.233
177.513
176.788
176.057
175.32
174.578
173.829
173.075
172.314
171.548
170.776
169.997
169.212
168.422
167.625
166.821
166.012
165.196
164.373
163.545
162.709
161.867
161.019
160.163
159.301
158.433
157.557
156.674
155.785
154.888
153.985
153.074
152.156
151.231
150.299
149.359
148.412
147.458
146.495
145.526
144.548
143.563
142.57
141.569
140.561
139.544
138.52
137.487
136.446
135.397
134.34
133.274
132.2
131.117
130.026
128.926
127.818
126.701
125.575
124.44
123.296
122.144
120.982
119.811
118.631
117.442
116.244
115.037
113.82
112.594
111.36
110.116
108.863
107.602
106.332
105.054
103.769
102.477
101.179
99.8764
98.5686
97.2603
95.9456
94.6324
93.3044
91.9654
90.582
201.738
201.762
201.805
201.871
201.96
202.073
202.208
202.368
202.55
202.756
202.984
203.233
203.502
203.789
204.092
204.408
204.734
205.067
205.401
205.733
206.057
206.368
206.661
206.932
207.177
207.394
207.58
207.733
207.853
207.939
207.991
208.01
207.997
207.951
207.875
207.77
207.636
207.475
207.289
207.077
206.843
206.586
206.309
206.011
205.695
205.361
205.011
204.644
204.263
203.867
203.458
203.036
202.601
202.156
201.699
201.232
200.755
200.269
199.773
199.269
198.756
198.235
197.706
197.17
196.627
196.076
195.519
194.955
194.385
193.808
193.224
192.635
192.04
191.439
190.831
190.219
189.6
188.975
188.345
187.71
187.069
186.422
185.77
185.112
184.448
183.78
183.105
182.425
181.74
181.048
180.352
179.649
178.941
178.228
177.508
176.783
176.052
175.316
174.573
173.825
173.071
172.31
171.544
170.772
169.993
169.209
168.418
167.621
166.818
166.008
165.192
164.37
163.541
162.706
161.864
161.016
160.16
159.299
158.43
157.554
156.672
155.782
154.886
153.982
153.072
152.154
151.229
150.297
149.357
148.41
147.455
146.493
145.523
144.546
143.561
142.568
141.567
140.559
139.542
138.518
137.485
136.444
135.395
134.338
133.272
132.198
131.115
130.024
128.924
127.816
126.699
125.573
124.438
123.295
122.142
120.98
119.809
118.629
117.44
116.242
115.034
113.818
112.592
111.356
110.112
108.859
107.597
106.326
105.047
103.76
102.466
101.165
99.8583
98.545
97.2284
95.9032
94.5739
93.2273
91.8616
90.4547
200.751
200.777
200.824
200.895
200.991
201.112
201.26
201.434
201.635
201.863
202.117
202.397
202.702
203.031
203.38
203.747
204.128
204.52
204.917
205.311
205.698
206.069
206.418
206.741
207.033
207.289
207.509
207.691
207.833
207.937
208.004
208.033
208.027
207.987
207.914
207.81
207.676
207.514
207.326
207.112
206.875
206.616
206.336
206.035
205.716
205.38
205.026
204.657
204.273
203.875
203.464
203.04
202.604
202.157
201.699
201.231
200.753
200.265
199.769
199.264
198.75
198.229
197.7
197.163
196.62
196.069
195.511
194.947
194.377
193.8
193.217
192.627
192.032
191.431
190.824
190.211
189.592
188.968
188.338
187.703
187.062
186.415
185.763
185.105
184.442
183.773
183.099
182.419
181.734
181.043
180.346
179.644
178.936
178.223
177.503
176.778
176.048
175.311
174.569
173.821
173.066
172.306
171.54
170.768
169.99
169.205
168.414
167.618
166.814
166.005
165.189
164.367
163.538
162.703
161.861
161.013
160.158
159.296
158.427
157.552
156.669
155.78
154.883
153.98
153.069
152.152
151.227
150.294
149.355
148.408
147.453
146.491
145.521
144.544
143.559
142.566
141.565
140.557
139.54
138.516
137.483
136.442
135.393
134.336
133.27
132.196
131.113
130.022
128.923
127.814
126.697
125.571
124.436
123.293
122.14
120.978
119.807
118.627
117.438
116.24
115.032
113.815
112.589
111.353
110.108
108.854
107.592
106.32
105.04
103.751
102.454
101.15
99.839
98.5201
97.1952
95.8599
94.5157
93.1523
91.7648
90.3373
199.547
199.576
199.623
199.696
199.795
199.921
200.075
200.259
200.473
200.719
200.998
201.308
201.651
202.024
202.426
202.855
203.306
203.774
204.252
204.732
205.203
205.656
206.083
206.476
206.829
207.139
207.403
207.621
207.793
207.92
208.004
208.046
208.05
208.016
207.948
207.846
207.713
207.551
207.362
207.147
206.907
206.645
206.362
206.059
205.738
205.398
205.042
204.671
204.284
203.884
203.471
203.045
202.608
202.159
201.7
201.23
200.751
200.262
199.765
199.259
198.745
198.223
197.694
197.157
196.613
196.062
195.504
194.94
194.369
193.792
193.209
192.619
192.024
191.423
190.816
190.203
189.585
188.961
188.331
187.696
187.055
186.408
185.756
185.099
184.436
183.767
183.093
182.413
181.728
181.037
180.341
179.639
178.931
178.218
177.499
176.774
176.043
175.307
174.564
173.816
173.062
172.302
171.536
170.764
169.986
169.201
168.411
167.614
166.811
166.002
165.186
164.364
163.535
162.7
161.858
161.01
160.155
159.293
158.424
157.549
156.667
155.777
154.881
153.977
153.067
152.149
151.224
150.292
149.352
148.405
147.451
146.489
145.519
144.542
143.557
142.564
141.563
140.555
139.538
138.514
137.481
136.44
135.391
134.334
133.268
132.194
131.112
130.021
128.921
127.812
126.695
125.569
124.435
123.291
122.138
120.976
119.805
118.625
117.436
116.237
115.029
113.812
112.586
111.35
110.104
108.85
107.586
106.313
105.032
103.741
102.442
101.134
99.8189
98.4943
97.1613
95.8163
94.4587
93.0803
91.6745
90.2297
198.087
198.113
198.159
198.224
198.315
198.433
198.58
198.76
198.974
199.225
199.516
199.848
200.224
200.644
201.108
201.613
202.154
202.723
203.313
203.91
204.501
205.072
205.607
206.099
206.538
206.921
207.245
207.511
207.721
207.877
207.984
208.044
208.06
208.036
207.973
207.876
207.745
207.584
207.394
207.178
206.937
206.673
206.387
206.082
205.758
205.416
205.057
204.683
204.295
203.893
203.478
203.05
202.611
202.161
201.7
201.229
200.749
200.26
199.761
199.255
198.74
198.218
197.688
197.15
196.606
196.055
195.497
194.932
194.362
193.784
193.201
192.612
192.017
191.415
190.809
190.196
189.578
188.954
188.324
187.689
187.048
186.402
185.75
185.092
184.429
183.761
183.087
182.407
181.722
181.032
180.335
179.634
178.926
178.213
177.494
176.769
176.039
175.302
174.56
173.812
173.058
172.298
171.532
170.76
169.982
169.198
168.407
167.611
166.808
165.999
165.183
164.361
163.532
162.697
161.855
161.007
160.152
159.29
158.422
157.546
156.664
155.775
154.878
153.975
153.065
152.147
151.222
150.29
149.35
148.403
147.449
146.487
145.517
144.54
143.555
142.562
141.561
140.553
139.536
138.512
137.479
136.438
135.389
134.332
133.267
132.192
131.11
130.019
128.919
127.811
126.694
125.568
124.433
123.289
122.136
120.974
119.803
118.623
117.434
116.235
115.027
113.809
112.582
111.346
110.1
108.845
107.58
106.306
105.023
103.731
102.429
101.118
99.7983
98.4681
97.1275
95.7732
94.4036
93.0117
91.5906
90.1312
196.288
196.317
196.349
196.399
196.465
196.554
196.667
196.811
196.991
197.215
197.49
197.822
198.218
198.683
199.216
199.816
200.474
201.183
201.932
202.701
203.471
204.218
204.916
205.554
206.116
206.601
207.008
207.34
207.601
207.797
207.934
208.017
208.051
208.039
207.986
207.895
207.768
207.609
207.42
207.203
206.962
206.696
206.409
206.101
205.775
205.431
205.071
204.695
204.304
203.9
203.483
203.054
202.614
202.162
201.7
201.228
200.747
200.257
199.758
199.25
198.735
198.212
197.682
197.144
196.599
196.048
195.49
194.925
194.354
193.777
193.194
192.604
192.009
191.408
190.801
190.189
189.57
188.946
188.317
187.682
187.041
186.395
185.743
185.086
184.423
183.755
183.081
182.402
181.717
181.026
180.33
179.628
178.921
178.208
177.489
176.764
176.034
175.298
174.556
173.808
173.054
172.294
171.528
170.756
169.978
169.194
168.404
167.607
166.805
165.995
165.18
164.358
163.529
162.694
161.852
161.004
160.149
159.288
158.419
157.544
156.661
155.772
154.876
153.973
153.062
152.145
151.22
150.288
149.348
148.401
147.447
146.485
145.515
144.538
143.553
142.56
141.559
140.551
139.534
138.51
137.477
136.437
135.388
134.33
133.265
132.191
131.108
130.017
128.917
127.809
126.692
125.566
124.431
123.287
122.134
120.972
119.801
118.621
117.431
116.233
115.024
113.806
112.579
111.342
110.096
108.84
107.575
106.3
105.015
103.72
102.416
101.102
99.7776
98.4419
97.0941
95.7311
94.3507
92.9469
91.5128
90.0408
194.134
194.151
194.154
194.153
194.149
194.15
194.166
194.207
194.282
194.404
194.591
194.863
195.239
195.731
196.345
197.077
197.916
198.843
199.84
200.874
201.917
202.934
203.883
204.741
205.49
206.127
206.654
207.08
207.412
207.663
207.842
207.957
208.015
208.021
207.981
207.899
207.779
207.624
207.437
207.222
206.98
206.714
206.426
206.117
205.789
205.444
205.082
204.704
204.312
203.906
203.488
203.057
202.616
202.163
201.7
201.227
200.745
200.254
199.754
199.246
198.73
198.207
197.676
197.138
196.593
196.041
195.483
194.918
194.347
193.77
193.186
192.597
192.002
191.401
190.794
190.181
189.563
188.939
188.31
187.675
187.034
186.388
185.737
185.08
184.417
183.749
183.075
182.396
181.711
181.021
180.325
179.623
178.916
178.203
177.484
176.76
176.03
175.294
174.552
173.804
173.05
172.29
171.525
170.753
169.975
169.191
168.401
167.604
166.801
165.992
165.177
164.355
163.526
162.691
161.85
161.002
160.147
159.285
158.417
157.541
156.659
155.77
154.874
153.97
153.06
152.142
151.218
150.285
149.346
148.399
147.445
146.483
145.513
144.536
143.551
142.558
141.558
140.549
139.533
138.508
137.476
136.435
135.386
134.329
133.263
132.189
131.106
130.015
128.916
127.807
126.69
125.564
124.429
123.285
122.132
120.971
119.799
118.619
117.429
116.23
115.022
113.804
112.576
111.339
110.092
108.835
107.569
106.293
105.006
103.71
102.403
101.086
99.757
98.416
97.0615
95.6905
94.3005
92.886
91.4408
89.9582
191.516
191.501
191.429
191.322
191.191
191.036
190.852
190.649
190.442
190.276
190.204
190.282
190.561
191.073
191.832
192.814
193.972
195.256
196.628
198.063
199.525
200.964
202.316
203.527
204.57
205.441
206.148
206.708
207.141
207.467
207.703
207.86
207.949
207.98
207.957
207.888
207.776
207.627
207.444
207.231
206.991
206.725
206.437
206.128
205.799
205.452
205.089
204.71
204.317
203.91
203.491
203.059
202.616
202.162
201.698
201.225
200.742
200.25
199.75
199.241
198.725
198.201
197.67
197.131
196.586
196.034
195.476
194.911
194.34
193.762
193.179
192.59
191.994
191.393
190.787
190.174
189.556
188.932
188.303
187.668
187.028
186.382
185.73
185.074
184.411
183.743
183.069
182.39
181.706
181.015
180.32
179.618
178.911
178.198
177.48
176.755
176.025
175.289
174.547
173.8
173.046
172.286
171.521
170.749
169.971
169.187
168.397
167.601
166.798
165.989
165.174
164.352
163.523
162.689
161.847
160.999
160.144
159.282
158.414
157.539
156.657
155.768
154.871
153.968
153.058
152.14
151.215
150.283
149.344
148.397
147.443
146.481
145.511
144.534
143.549
142.556
141.556
140.547
139.531
138.507
137.474
136.433
135.384
134.327
133.261
132.187
131.105
130.014
128.914
127.806
126.689
125.563
124.428
123.284
122.131
120.969
119.797
118.617
117.427
116.228
115.019
113.801
112.573
111.335
110.088
108.83
107.563
106.286
104.998
103.699
102.39
101.069
99.7367
98.3907
97.03
95.6517
94.2531
92.8292
91.3744
89.8827
188.357
188.295
188.113
187.821
187.413
186.893
186.264
185.547
184.77
184.002
183.351
182.972
183.001
183.53
184.56
186.034
187.816
189.786
191.852
193.968
196.095
198.177
200.132
201.87
203.34
204.538
205.487
206.226
206.792
207.215
207.521
207.73
207.859
207.919
207.918
207.863
207.763
207.621
207.443
207.233
206.995
206.73
206.442
206.133
205.804
205.457
205.093
204.713
204.319
203.912
203.491
203.059
202.615
202.161
201.696
201.222
200.738
200.246
199.745
199.236
198.719
198.195
197.664
197.125
196.58
196.027
195.469
194.904
194.333
193.755
193.172
192.582
191.987
191.386
190.78
190.167
189.549
188.926
188.296
187.662
187.021
186.376
185.724
185.067
184.405
183.737
183.064
182.385
181.7
181.01
180.314
179.613
178.906
178.193
177.475
176.751
176.021
175.285
174.543
173.796
173.042
172.283
171.517
170.746
169.968
169.184
168.394
167.598
166.795
165.986
165.171
164.349
163.521
162.686
161.844
160.996
160.141
159.28
158.412
157.537
156.654
155.765
154.869
153.966
153.056
152.138
151.213
150.281
149.342
148.395
147.441
146.479
145.509
144.532
143.547
142.555
141.554
140.546
139.529
138.505
137.472
136.432
135.383
134.325
133.26
132.186
131.103
130.012
128.913
127.804
126.687
125.561
124.426
123.282
122.129
120.967
119.796
118.615
117.425
116.226
115.017
113.798
112.57
111.332
110.084
108.826
107.557
106.279
104.989
103.689
102.377
101.054
99.7171
98.3664
96.9999
95.615
94.2087
92.7766
91.3134
89.8138
184.734
184.564
184.106
183.411
182.485
181.34
179.924
178.229
176.339
174.476
172.881
171.777
171.438
172.04
173.608
176.045
179.071
182.334
185.604
188.79
191.864
194.802
197.533
199.935
201.924
203.508
204.742
205.689
206.404
206.935
207.319
207.585
207.756
207.846
207.869
207.831
207.742
207.608
207.435
207.229
206.993
206.73
206.443
206.134
205.805
205.458
205.094
204.714
204.319
203.911
203.49
203.057
202.613
202.158
201.692
201.218
200.734
200.241
199.74
199.23
198.713
198.189
197.657
197.118
196.573
196.02
195.462
194.897
194.325
193.748
193.164
192.575
191.98
191.379
190.772
190.16
189.542
188.919
188.29
187.655
187.015
186.369
185.718
185.061
184.399
183.731
183.058
182.379
181.695
181.005
180.309
179.608
178.901
178.189
177.47
176.746
176.016
175.281
174.539
173.792
173.038
172.279
171.514
170.742
169.964
169.181
168.391
167.595
166.792
165.983
165.168
164.346
163.518
162.683
161.842
160.994
160.139
159.278
158.409
157.534
156.652
155.763
154.867
153.964
153.054
152.136
151.211
150.279
149.34
148.393
147.439
146.477
145.508
144.53
143.546
142.553
141.552
140.544
139.528
138.503
137.471
136.43
135.381
134.324
133.258
132.184
131.102
130.011
128.911
127.803
126.685
125.559
124.424
123.28
122.127
120.965
119.794
118.613
117.423
116.223
115.014
113.796
112.567
111.328
110.08
108.821
107.552
106.272
104.981
103.679
102.365
101.038
99.6982
98.3432
96.9715
95.5806
94.1675
92.7281
91.2577
89.7512
180.443
180.043
179.122
177.737
175.835
173.464
170.635
167.413
164.024
160.956
158.48
156.845
156.353
157.241
159.594
163.369
168.222
173.491
178.626
183.412
187.727
191.659
195.208
198.238
200.686
202.6
204.079
205.209
206.059
206.685
207.136
207.451
207.657
207.774
207.816
207.793
207.714
207.587
207.42
207.217
206.984
206.723
206.438
206.13
205.802
205.456
205.092
204.712
204.317
203.909
203.487
203.054
202.609
202.154
201.688
201.213
200.728
200.235
199.734
199.224
198.707
198.182
197.65
197.111
196.566
196.013
195.455
194.889
194.318
193.741
193.157
192.568
191.973
191.372
190.765
190.153
189.535
188.912
188.283
187.649
187.009
186.363
185.712
185.055
184.393
183.726
183.053
182.374
181.69
181
180.304
179.603
178.897
178.184
177.466
176.742
176.012
175.277
174.535
173.788
173.035
172.275
171.51
170.739
169.961
169.178
168.388
167.591
166.789
165.98
165.165
164.343
163.515
162.681
161.839
160.991
160.137
159.275
158.407
157.532
156.65
155.761
154.865
153.962
153.052
152.134
151.21
150.278
149.338
148.391
147.437
146.475
145.506
144.529
143.544
142.551
141.551
140.543
139.526
138.502
137.469
136.429
135.38
134.322
133.257
132.183
131.1
130.009
128.91
127.801
126.684
125.558
124.423
123.279
122.126
120.964
119.792
118.611
117.421
116.221
115.012
113.793
112.564
111.325
110.076
108.816
107.546
106.265
104.973
103.669
102.353
101.024
99.6803
98.3213
96.9449
95.5485
94.1295
92.6837
91.2069
89.6945
175.726
174.994
173.272
170.532
166.774
162.33
157.666
152.785
148.062
144.262
141.72
140.748
141.532
143.987
148.05
153.733
160.542
167.614
174.182
180.072
185.254
189.825
193.834
197.198
199.891
201.989
203.613
204.858
205.796
206.486
206.981
207.329
207.56
207.697
207.754
207.743
207.673
207.553
207.392
207.194
206.964
206.707
206.424
206.118
205.792
205.447
205.084
204.704
204.31
203.902
203.481
203.047
202.603
202.147
201.682
201.206
200.722
200.229
199.727
199.217
198.7
198.175
197.643
197.104
196.558
196.006
195.447
194.882
194.311
193.733
193.15
192.561
191.966
191.365
190.759
190.146
189.529
188.905
188.277
187.642
187.002
186.357
185.706
185.05
184.388
183.72
183.047
182.369
181.684
180.995
180.299
179.599
178.892
178.18