/*--------------------------------*- C++ -*----------------------------------*\
| =========                 |                                                 |
| \\      /  F ield         | OpenFOAM: The Open Source CFD Toolbox           |
|  \\    /   O peration     | Version:  2.1.x                                 |
|   \\  /    A nd           | Web:      www.OpenFOAM.org                      |
|    \\/     M anipulation  |                                                 |
\*---------------------------------------------------------------------------*/
FoamFile
{
    version     2.0;
    format      ascii;
    class       volScalarField;
    location    "0.004";
    object      pPrime2Mean;
}
// * * * * * * * * * * * * * * * * * * * * * * * * * * * * * * * * * * * * * //

dimensions      [0 4 -4 0 0 0 0];

internalField   nonuniform List<scalar> 
12225
(
1.0102e+08
9.94094e+07
9.7748e+07
9.61457e+07
9.46056e+07
9.31242e+07
9.16974e+07
9.0321e+07
8.89904e+07
8.77007e+07
8.64468e+07
8.52225e+07
8.40208e+07
8.28326e+07
8.16453e+07
8.04399e+07
7.91809e+07
7.77838e+07
1.01022e+08
9.94103e+07
9.77487e+07
9.61465e+07
9.46065e+07
9.31252e+07
9.16986e+07
9.03224e+07
8.89921e+07
8.77029e+07
8.64495e+07
8.52261e+07
8.40256e+07
8.28394e+07
8.16554e+07
8.0456e+07
7.92123e+07
7.78556e+07
1.01024e+08
9.94118e+07
9.77501e+07
9.61481e+07
9.46084e+07
9.31274e+07
9.17013e+07
9.03257e+07
8.89962e+07
8.7708e+07
8.64559e+07
8.52344e+07
8.40367e+07
8.28548e+07
8.1678e+07
8.04919e+07
7.92757e+07
7.80032e+07
1.01028e+08
9.94147e+07
9.77528e+07
9.6151e+07
9.46117e+07
9.31314e+07
9.1706e+07
9.03314e+07
8.90032e+07
8.77167e+07
8.6467e+07
8.52487e+07
8.40557e+07
8.28808e+07
8.17155e+07
8.05496e+07
7.93728e+07
7.81865e+07
1.01033e+08
9.94192e+07
9.7757e+07
9.61556e+07
9.46169e+07
9.31374e+07
9.17132e+07
9.03401e+07
8.90139e+07
8.773e+07
8.64838e+07
8.52703e+07
8.40842e+07
8.29195e+07
8.17701e+07
8.06303e+07
7.94989e+07
7.83902e+07
1.01042e+08
9.94259e+07
9.77632e+07
9.61622e+07
9.46244e+07
9.31462e+07
9.17236e+07
9.03526e+07
8.90292e+07
8.7749e+07
8.65076e+07
8.53008e+07
8.41239e+07
8.29726e+07
8.18431e+07
8.07338e+07
7.96489e+07
7.86063e+07
1.01055e+08
9.94352e+07
9.77718e+07
9.61715e+07
9.46349e+07
9.31583e+07
9.17379e+07
9.03699e+07
8.90502e+07
8.77748e+07
8.654e+07
8.53417e+07
8.41766e+07
8.30416e+07
8.19351e+07
8.08584e+07
7.98183e+07
7.88306e+07
1.01067e+08
9.94452e+07
9.77815e+07
9.61819e+07
9.46467e+07
9.31721e+07
9.17542e+07
9.03893e+07
8.90737e+07
8.78037e+07
8.65757e+07
8.53865e+07
8.42333e+07
8.31143e+07
8.20291e+07
8.09803e+07
7.99751e+07
7.90259e+07
1.0108e+08
9.94555e+07
9.7792e+07
9.61932e+07
9.46595e+07
9.31868e+07
9.17715e+07
9.041e+07
8.90987e+07
8.78342e+07
8.66132e+07
8.54331e+07
8.42917e+07
8.31878e+07
8.21221e+07
8.10977e+07
8.0121e+07
7.92018e+07
1.01091e+08
9.94685e+07
9.78056e+07
9.62081e+07
9.46762e+07
9.32062e+07
9.17943e+07
9.04371e+07
8.91312e+07
8.78736e+07
8.66613e+07
8.54921e+07
8.43645e+07
8.3278e+07
8.22337e+07
8.12346e+07
8.02861e+07
7.93949e+07
1.01106e+08
9.94849e+07
9.78234e+07
9.62276e+07
9.46982e+07
9.32315e+07
9.1824e+07
9.04722e+07
8.91731e+07
8.79239e+07
8.67222e+07
8.5566e+07
8.44543e+07
8.3387e+07
8.23653e+07
8.13919e+07
8.04705e+07
7.96054e+07
1.01121e+08
9.9506e+07
9.78467e+07
9.62532e+07
9.47269e+07
9.32644e+07
9.18623e+07
9.05173e+07
8.92266e+07
8.79876e+07
8.67982e+07
8.5657e+07
8.4563e+07
8.35164e+07
8.2518e+07
8.15699e+07
8.06742e+07
7.98332e+07
1.01149e+08
9.95347e+07
9.78771e+07
9.62863e+07
9.4764e+07
9.33068e+07
9.19113e+07
9.05746e+07
8.92938e+07
8.80669e+07
8.68917e+07
8.57671e+07
8.46923e+07
8.36672e+07
8.26923e+07
8.17684e+07
8.08966e+07
8.00775e+07
1.01192e+08
9.95731e+07
9.79164e+07
9.63289e+07
9.48114e+07
9.33605e+07
9.1973e+07
9.06461e+07
8.9377e+07
8.81637e+07
8.70044e+07
8.58978e+07
8.4843e+07
8.38396e+07
8.28873e+07
8.19863e+07
8.11364e+07
8.03371e+07
1.01239e+08
9.9621e+07
9.79662e+07
9.63825e+07
9.48707e+07
9.34274e+07
9.20493e+07
9.07335e+07
8.94776e+07
8.82794e+07
8.7137e+07
8.60491e+07
8.50145e+07
8.40322e+07
8.31014e+07
8.22215e+07
8.13913e+07
8.06096e+07
1.013e+08
9.96803e+07
9.80275e+07
9.64484e+07
9.49434e+07
9.35087e+07
9.21412e+07
9.08378e+07
8.95961e+07
8.84138e+07
8.72888e+07
8.62196e+07
8.52046e+07
8.42423e+07
8.33313e+07
8.24703e+07
8.16577e+07
8.08916e+07
1.01367e+08
9.97495e+07
9.81004e+07
9.6527e+07
9.50296e+07
9.36045e+07
9.22483e+07
9.09581e+07
8.9731e+07
8.85648e+07
8.7457e+07
8.64058e+07
8.54091e+07
8.44651e+07
8.35719e+07
8.27276e+07
8.19302e+07
8.11777e+07
1.01437e+08
9.98225e+07
9.81778e+07
9.66104e+07
9.51206e+07
9.37048e+07
9.23594e+07
9.10814e+07
8.98677e+07
8.87157e+07
8.7623e+07
8.6587e+07
8.56057e+07
8.46766e+07
8.37977e+07
8.29667e+07
8.21814e+07
8.14395e+07
1.01501e+08
9.98884e+07
9.82473e+07
9.66848e+07
9.52014e+07
9.37931e+07
9.24564e+07
9.11879e+07
8.99846e+07
8.88435e+07
8.7762e+07
8.67373e+07
8.57671e+07
8.48488e+07
8.398e+07
8.31583e+07
8.23815e+07
8.16471e+07
1.01552e+08
9.99424e+07
9.83041e+07
9.67453e+07
9.52665e+07
9.38638e+07
9.25335e+07
9.12721e+07
9.00762e+07
8.8943e+07
8.78694e+07
8.68527e+07
8.58902e+07
8.49793e+07
8.41174e+07
8.33021e+07
8.2531e+07
8.18017e+07
1.01596e+08
9.99866e+07
9.83496e+07
9.67933e+07
9.53179e+07
9.39194e+07
9.25937e+07
9.13374e+07
9.0147e+07
8.90193e+07
8.79514e+07
8.69403e+07
8.59833e+07
8.50775e+07
8.42205e+07
8.34097e+07
8.26426e+07
8.19167e+07
1.01631e+08
1.00021e+08
9.83852e+07
9.68306e+07
9.53577e+07
9.39621e+07
9.26398e+07
9.13872e+07
9.02007e+07
8.90771e+07
8.80132e+07
8.70062e+07
8.6053e+07
8.51509e+07
8.42973e+07
8.34896e+07
8.27253e+07
8.20019e+07
1.01659e+08
1.00048e+08
9.84125e+07
9.68591e+07
9.53879e+07
9.39944e+07
9.26746e+07
9.14246e+07
9.02409e+07
8.91202e+07
8.80593e+07
8.7055e+07
8.61046e+07
8.52052e+07
8.4354e+07
8.35484e+07
8.27861e+07
8.20645e+07
1.01681e+08
1.00069e+08
9.84329e+07
9.68803e+07
9.54103e+07
9.40183e+07
9.27002e+07
9.14521e+07
9.02705e+07
8.91518e+07
8.8093e+07
8.70908e+07
8.61423e+07
8.52447e+07
8.43952e+07
8.35912e+07
8.28303e+07
8.21099e+07
1.01697e+08
1.00083e+08
9.84476e+07
9.68957e+07
9.54266e+07
9.40357e+07
9.27188e+07
9.1472e+07
9.02917e+07
8.91745e+07
8.81171e+07
8.71164e+07
8.61693e+07
8.52729e+07
8.44246e+07
8.36218e+07
8.28618e+07
8.21422e+07
1.01706e+08
1.00093e+08
9.84579e+07
9.69066e+07
9.54381e+07
9.40479e+07
9.27318e+07
9.14859e+07
9.03066e+07
8.91904e+07
8.8134e+07
8.71342e+07
8.6188e+07
8.52926e+07
8.44451e+07
8.3643e+07
8.28837e+07
8.21647e+07
1.01709e+08
1.00099e+08
9.84649e+07
9.6914e+07
9.54459e+07
9.40561e+07
9.27406e+07
9.14953e+07
9.03167e+07
8.92011e+07
8.81453e+07
8.71462e+07
8.62006e+07
8.53057e+07
8.44588e+07
8.36572e+07
8.28983e+07
8.21798e+07
1.01712e+08
1.00103e+08
9.84694e+07
9.69187e+07
9.54508e+07
9.40614e+07
9.27461e+07
9.15012e+07
9.0323e+07
8.92078e+07
8.81525e+07
8.71537e+07
8.62085e+07
8.5314e+07
8.44674e+07
8.36661e+07
8.29075e+07
8.21892e+07
1.01713e+08
1.00105e+08
9.8472e+07
9.69215e+07
9.54537e+07
9.40643e+07
9.27493e+07
9.15045e+07
9.03265e+07
8.92116e+07
8.81564e+07
8.71579e+07
8.62129e+07
8.53186e+07
8.44722e+07
8.36711e+07
8.29127e+07
8.21945e+07
1.01712e+08
1.00106e+08
9.8473e+07
9.69226e+07
9.54549e+07
9.40656e+07
9.27506e+07
9.15059e+07
9.0328e+07
8.92131e+07
8.81581e+07
8.71597e+07
8.62148e+07
8.53206e+07
8.44742e+07
8.36732e+07
8.29148e+07
8.21967e+07
6.57169e+07
6.57116e+07
6.57011e+07
6.56851e+07
6.56635e+07
6.56363e+07
6.56033e+07
6.55645e+07
6.55198e+07
6.54692e+07
6.54124e+07
6.53496e+07
6.52807e+07
6.52056e+07
6.51242e+07
6.50367e+07
6.49429e+07
6.48428e+07
6.47365e+07
6.4624e+07
6.45052e+07
6.43802e+07
6.4249e+07
6.41117e+07
6.39683e+07
6.38188e+07
6.36633e+07
6.35019e+07
6.33346e+07
6.31614e+07
6.29825e+07
6.27979e+07
6.26077e+07
6.2412e+07
6.22108e+07
6.20042e+07
6.17924e+07
6.15753e+07
6.13531e+07
6.11258e+07
6.08936e+07
6.06565e+07
6.04147e+07
6.01681e+07
5.99169e+07
5.96612e+07
5.94011e+07
5.91366e+07
5.88678e+07
5.85948e+07
5.83177e+07
5.80366e+07
5.77515e+07
5.74626e+07
5.71698e+07
5.68734e+07
5.65733e+07
5.62696e+07
5.59625e+07
5.56519e+07
5.5338e+07
5.50207e+07
5.47003e+07
5.43767e+07
5.405e+07
5.37203e+07
5.33877e+07
5.30521e+07
5.27137e+07
5.23725e+07
5.20286e+07
5.1682e+07
5.13328e+07
5.09811e+07
5.06268e+07
5.02701e+07
4.9911e+07
4.95495e+07
4.91857e+07
4.88197e+07
4.84514e+07
4.8081e+07
4.77084e+07
4.73338e+07
4.69572e+07
4.65785e+07
4.6198e+07
4.58155e+07
4.54311e+07
4.50449e+07
4.4657e+07
4.42673e+07
4.38759e+07
4.34828e+07
4.30881e+07
4.26919e+07
4.22941e+07
4.18947e+07
4.14939e+07
4.10917e+07
4.0688e+07
4.0283e+07
3.98767e+07
3.94691e+07
3.90602e+07
3.86502e+07
3.82389e+07
3.78266e+07
3.74131e+07
3.69986e+07
3.6583e+07
3.61665e+07
3.5749e+07
3.53306e+07
3.49113e+07
3.44913e+07
3.40704e+07
3.36488e+07
3.32265e+07
3.28036e+07
3.238e+07
3.19559e+07
3.15312e+07
3.11061e+07
3.06805e+07
3.02545e+07
2.98282e+07
2.94016e+07
2.89748e+07
2.85477e+07
2.81205e+07
2.76933e+07
2.72659e+07
2.68386e+07
2.64114e+07
2.59843e+07
2.55574e+07
2.51307e+07
2.47043e+07
2.42783e+07
2.38527e+07
2.34276e+07
2.3003e+07
2.25791e+07
2.21558e+07
2.17333e+07
2.13116e+07
2.08908e+07
2.0471e+07
2.00523e+07
1.96346e+07
1.92181e+07
1.8803e+07
1.83891e+07
1.79768e+07
1.75659e+07
1.71567e+07
1.67492e+07
1.63434e+07
1.59396e+07
1.55377e+07
1.5138e+07
1.47404e+07
1.43451e+07
1.39523e+07
1.35619e+07
1.31743e+07
1.27893e+07
1.24073e+07
1.20284e+07
1.16527e+07
1.12804e+07
1.09116e+07
1.05467e+07
1.01859e+07
9.82961e+06
9.47824e+06
9.13253e+06
8.79369e+06
8.46435e+06
6.57408e+07
6.57356e+07
6.57249e+07
6.57088e+07
6.56871e+07
6.56597e+07
6.56265e+07
6.55875e+07
6.55426e+07
6.54916e+07
6.54346e+07
6.53714e+07
6.53021e+07
6.52266e+07
6.51449e+07
6.50569e+07
6.49626e+07
6.48621e+07
6.47553e+07
6.46423e+07
6.4523e+07
6.43975e+07
6.42658e+07
6.4128e+07
6.39841e+07
6.38341e+07
6.36781e+07
6.35162e+07
6.33483e+07
6.31747e+07
6.29953e+07
6.28102e+07
6.26195e+07
6.24233e+07
6.22217e+07
6.20147e+07
6.18024e+07
6.15848e+07
6.13622e+07
6.11346e+07
6.0902e+07
6.06645e+07
6.04223e+07
6.01754e+07
5.99238e+07
5.96678e+07
5.94073e+07
5.91425e+07
5.88734e+07
5.86002e+07
5.83228e+07
5.80414e+07
5.77561e+07
5.74669e+07
5.7174e+07
5.68773e+07
5.6577e+07
5.62731e+07
5.59658e+07
5.5655e+07
5.53409e+07
5.50235e+07
5.47029e+07
5.43792e+07
5.40524e+07
5.37226e+07
5.33898e+07
5.30541e+07
5.27156e+07
5.23743e+07
5.20302e+07
5.16836e+07
5.13343e+07
5.09824e+07
5.06281e+07
5.02713e+07
4.99121e+07
4.95505e+07
4.91867e+07
4.88206e+07
4.84523e+07
4.80818e+07
4.77092e+07
4.73345e+07
4.69578e+07
4.65791e+07
4.61985e+07
4.5816e+07
4.54316e+07
4.50454e+07
4.46574e+07
4.42677e+07
4.38763e+07
4.34832e+07
4.30885e+07
4.26922e+07
4.22943e+07
4.1895e+07
4.14941e+07
4.10919e+07
4.06882e+07
4.02832e+07
3.98769e+07
3.94693e+07
3.90604e+07
3.86503e+07
3.82391e+07
3.78267e+07
3.74132e+07
3.69987e+07
3.65831e+07
3.61665e+07
3.57491e+07
3.53307e+07
3.49114e+07
3.44913e+07
3.40705e+07
3.36489e+07
3.32266e+07
3.28036e+07
3.238e+07
3.19559e+07
3.15312e+07
3.11061e+07
3.06805e+07
3.02545e+07
2.98282e+07
2.94016e+07
2.89748e+07
2.85477e+07
2.81205e+07
2.76933e+07
2.72659e+07
2.68386e+07
2.64114e+07
2.59843e+07
2.55574e+07
2.51307e+07
2.47043e+07
2.42783e+07
2.38527e+07
2.34276e+07
2.3003e+07
2.25791e+07
2.21558e+07
2.17333e+07
2.13116e+07
2.08909e+07
2.0471e+07
2.00523e+07
1.96346e+07
1.92181e+07
1.8803e+07
1.83891e+07
1.79768e+07
1.75659e+07
1.71567e+07
1.67492e+07
1.63434e+07
1.59396e+07
1.55377e+07
1.5138e+07
1.47404e+07
1.43451e+07
1.39523e+07
1.35619e+07
1.31742e+07
1.27893e+07
1.24073e+07
1.20284e+07
1.16526e+07
1.12803e+07
1.09115e+07
1.05466e+07
1.01857e+07
9.82933e+06
9.47783e+06
9.13189e+06
8.79256e+06
8.46169e+06
6.57889e+07
6.57836e+07
6.57728e+07
6.57564e+07
6.57344e+07
6.57067e+07
6.56731e+07
6.56336e+07
6.55881e+07
6.55366e+07
6.54789e+07
6.54151e+07
6.5345e+07
6.52688e+07
6.51862e+07
6.50973e+07
6.50022e+07
6.49007e+07
6.4793e+07
6.4679e+07
6.45587e+07
6.44322e+07
6.42995e+07
6.41606e+07
6.40157e+07
6.38647e+07
6.37076e+07
6.35447e+07
6.33758e+07
6.32012e+07
6.30208e+07
6.28348e+07
6.26431e+07
6.2446e+07
6.22434e+07
6.20355e+07
6.18223e+07
6.16039e+07
6.13805e+07
6.1152e+07
6.09186e+07
6.06804e+07
6.04374e+07
6.01898e+07
5.99376e+07
5.96809e+07
5.94198e+07
5.91544e+07
5.88847e+07
5.86109e+07
5.8333e+07
5.80511e+07
5.77653e+07
5.74756e+07
5.71822e+07
5.68851e+07
5.65844e+07
5.62801e+07
5.59724e+07
5.56613e+07
5.53468e+07
5.50291e+07
5.47082e+07
5.43842e+07
5.40571e+07
5.3727e+07
5.33939e+07
5.3058e+07
5.27192e+07
5.23777e+07
5.20335e+07
5.16866e+07
5.13372e+07
5.09851e+07
5.06306e+07
5.02737e+07
4.99143e+07
4.95526e+07
4.91886e+07
4.88224e+07
4.8454e+07
4.80834e+07
4.77107e+07
4.73359e+07
4.69591e+07
4.65804e+07
4.61997e+07
4.58171e+07
4.54326e+07
4.50463e+07
4.46583e+07
4.42685e+07
4.3877e+07
4.34839e+07
4.30891e+07
4.26928e+07
4.22949e+07
4.18955e+07
4.14946e+07
4.10923e+07
4.06886e+07
4.02836e+07
3.98772e+07
3.94696e+07
3.90607e+07
3.86506e+07
3.82393e+07
3.78269e+07
3.74134e+07
3.69989e+07
3.65833e+07
3.61667e+07
3.57492e+07
3.53308e+07
3.49115e+07
3.44915e+07
3.40706e+07
3.3649e+07
3.32267e+07
3.28037e+07
3.23801e+07
3.1956e+07
3.15313e+07
3.11062e+07
3.06806e+07
3.02546e+07
2.98283e+07
2.94017e+07
2.89748e+07
2.85478e+07
2.81206e+07
2.76933e+07
2.7266e+07
2.68387e+07
2.64114e+07
2.59843e+07
2.55574e+07
2.51307e+07
2.47043e+07
2.42783e+07
2.38527e+07
2.34276e+07
2.3003e+07
2.25791e+07
2.21558e+07
2.17333e+07
2.13116e+07
2.08909e+07
2.0471e+07
2.00523e+07
1.96346e+07
1.92181e+07
1.8803e+07
1.83891e+07
1.79768e+07
1.75659e+07
1.71567e+07
1.67491e+07
1.63434e+07
1.59396e+07
1.55377e+07
1.51379e+07
1.47404e+07
1.43451e+07
1.39522e+07
1.35619e+07
1.31742e+07
1.27893e+07
1.24072e+07
1.20283e+07
1.16525e+07
1.12801e+07
1.09113e+07
1.05463e+07
1.01853e+07
9.82879e+06
9.47705e+06
9.13069e+06
8.7905e+06
8.45754e+06
6.58615e+07
6.58559e+07
6.58449e+07
6.58282e+07
6.58058e+07
6.57775e+07
6.57433e+07
6.57031e+07
6.56568e+07
6.56043e+07
6.55457e+07
6.54808e+07
6.54097e+07
6.53322e+07
6.52483e+07
6.51582e+07
6.50617e+07
6.49588e+07
6.48496e+07
6.47341e+07
6.46123e+07
6.44843e+07
6.435e+07
6.42096e+07
6.40631e+07
6.39105e+07
6.37519e+07
6.35874e+07
6.34171e+07
6.32409e+07
6.3059e+07
6.28715e+07
6.26784e+07
6.24799e+07
6.22759e+07
6.20666e+07
6.18521e+07
6.16325e+07
6.14078e+07
6.11781e+07
6.09435e+07
6.07042e+07
6.04601e+07
6.02114e+07
5.99582e+07
5.97005e+07
5.94385e+07
5.91721e+07
5.89016e+07
5.86269e+07
5.83482e+07
5.80655e+07
5.7779e+07
5.74886e+07
5.71945e+07
5.68968e+07
5.65954e+07
5.62906e+07
5.59823e+07
5.56706e+07
5.53556e+07
5.50374e+07
5.47161e+07
5.43916e+07
5.40641e+07
5.37336e+07
5.34001e+07
5.30638e+07
5.27247e+07
5.23829e+07
5.20384e+07
5.16912e+07
5.13415e+07
5.09892e+07
5.06344e+07
5.02772e+07
4.99177e+07
4.95558e+07
4.91916e+07
4.88252e+07
4.84565e+07
4.80858e+07
4.77129e+07
4.7338e+07
4.69611e+07
4.65822e+07
4.62014e+07
4.58187e+07
4.54341e+07
4.50477e+07
4.46596e+07
4.42697e+07
4.38781e+07
4.34849e+07
4.30901e+07
4.26937e+07
4.22957e+07
4.18963e+07
4.14953e+07
4.1093e+07
4.06892e+07
4.02842e+07
3.98778e+07
3.94701e+07
3.90611e+07
3.8651e+07
3.82397e+07
3.78273e+07
3.74137e+07
3.69991e+07
3.65835e+07
3.6167e+07
3.57494e+07
3.5331e+07
3.49117e+07
3.44916e+07
3.40707e+07
3.36491e+07
3.32268e+07
3.28038e+07
3.23802e+07
3.19561e+07
3.15314e+07
3.11062e+07
3.06806e+07
3.02547e+07
2.98283e+07
2.94017e+07
2.89749e+07
2.85478e+07
2.81206e+07
2.76933e+07
2.7266e+07
2.68387e+07
2.64115e+07
2.59844e+07
2.55574e+07
2.51307e+07
2.47044e+07
2.42783e+07
2.38527e+07
2.34276e+07
2.3003e+07
2.25791e+07
2.21558e+07
2.17333e+07
2.13117e+07
2.08909e+07
2.0471e+07
2.00523e+07
1.96346e+07
1.92181e+07
1.8803e+07
1.83891e+07
1.79768e+07
1.75659e+07
1.71567e+07
1.67491e+07
1.63434e+07
1.59396e+07
1.55377e+07
1.51379e+07
1.47403e+07
1.43451e+07
1.39522e+07
1.35618e+07
1.31741e+07
1.27892e+07
1.24071e+07
1.20281e+07
1.16523e+07
1.12798e+07
1.0911e+07
1.05458e+07
1.01848e+07
9.82799e+06
9.47591e+06
9.12899e+06
8.78778e+06
8.45271e+06
6.59589e+07
6.59531e+07
6.59417e+07
6.59246e+07
6.59015e+07
6.58725e+07
6.58375e+07
6.57963e+07
6.57489e+07
6.56952e+07
6.56352e+07
6.55689e+07
6.54962e+07
6.54171e+07
6.53315e+07
6.52396e+07
6.51412e+07
6.50364e+07
6.49253e+07
6.48078e+07
6.46839e+07
6.45538e+07
6.44175e+07
6.4275e+07
6.41263e+07
6.39716e+07
6.3811e+07
6.36444e+07
6.34719e+07
6.32938e+07
6.31099e+07
6.29204e+07
6.27254e+07
6.25249e+07
6.23191e+07
6.2108e+07
6.18918e+07
6.16704e+07
6.1444e+07
6.12127e+07
6.09766e+07
6.07358e+07
6.04902e+07
6.02401e+07
5.99855e+07
5.97265e+07
5.94632e+07
5.91957e+07
5.8924e+07
5.86482e+07
5.83684e+07
5.80847e+07
5.77971e+07
5.75058e+07
5.72108e+07
5.69122e+07
5.66101e+07
5.63044e+07
5.59954e+07
5.5683e+07
5.53673e+07
5.50485e+07
5.47265e+07
5.44014e+07
5.40733e+07
5.37423e+07
5.34084e+07
5.30716e+07
5.2732e+07
5.23898e+07
5.20448e+07
5.16973e+07
5.13472e+07
5.09945e+07
5.06394e+07
5.02819e+07
4.99221e+07
4.95599e+07
4.91955e+07
4.88288e+07
4.84599e+07
4.8089e+07
4.77159e+07
4.73408e+07
4.69637e+07
4.65846e+07
4.62036e+07
4.58208e+07
4.5436e+07
4.50495e+07
4.46613e+07
4.42713e+07
4.38796e+07
4.34863e+07
4.30913e+07
4.26948e+07
4.22968e+07
4.18973e+07
4.14963e+07
4.10939e+07
4.06901e+07
4.02849e+07
3.98784e+07
3.94707e+07
3.90617e+07
3.86515e+07
3.82402e+07
3.78277e+07
3.74142e+07
3.69995e+07
3.65839e+07
3.61673e+07
3.57497e+07
3.53313e+07
3.4912e+07
3.44919e+07
3.4071e+07
3.36493e+07
3.3227e+07
3.2804e+07
3.23804e+07
3.19562e+07
3.15315e+07
3.11064e+07
3.06807e+07
3.02548e+07
2.98284e+07
2.94018e+07
2.89749e+07
2.85479e+07
2.81207e+07
2.76934e+07
2.72661e+07
2.68387e+07
2.64115e+07
2.59844e+07
2.55575e+07
2.51308e+07
2.47044e+07
2.42784e+07
2.38527e+07
2.34276e+07
2.30031e+07
2.25791e+07
2.21559e+07
2.17333e+07
2.13117e+07
2.08909e+07
2.0471e+07
2.00523e+07
1.96346e+07
1.92181e+07
1.8803e+07
1.83891e+07
1.79768e+07
1.75659e+07
1.71567e+07
1.67491e+07
1.63434e+07
1.59395e+07
1.55377e+07
1.51379e+07
1.47403e+07
1.4345e+07
1.39521e+07
1.35617e+07
1.3174e+07
1.2789e+07
1.24069e+07
1.20279e+07
1.1652e+07
1.12795e+07
1.09105e+07
1.05453e+07
1.0184e+07
9.82697e+06
9.47449e+06
9.12692e+06
8.7846e+06
8.44761e+06
6.60818e+07
6.60758e+07
6.60639e+07
6.60462e+07
6.60223e+07
6.59924e+07
6.59562e+07
6.59137e+07
6.58649e+07
6.58096e+07
6.57479e+07
6.56797e+07
6.5605e+07
6.55238e+07
6.54361e+07
6.53418e+07
6.5241e+07
6.51338e+07
6.50201e+07
6.49e+07
6.47736e+07
6.46408e+07
6.45018e+07
6.43566e+07
6.42053e+07
6.4048e+07
6.38847e+07
6.37154e+07
6.35404e+07
6.33597e+07
6.31733e+07
6.29813e+07
6.27838e+07
6.2581e+07
6.23729e+07
6.21595e+07
6.19411e+07
6.17176e+07
6.14891e+07
6.12558e+07
6.10178e+07
6.0775e+07
6.05276e+07
6.02758e+07
6.00195e+07
5.97589e+07
5.9494e+07
5.92249e+07
5.89518e+07
5.86746e+07
5.83935e+07
5.81085e+07
5.78197e+07
5.75272e+07
5.72311e+07
5.69314e+07
5.66282e+07
5.63216e+07
5.60116e+07
5.56983e+07
5.53819e+07
5.50622e+07
5.47394e+07
5.44136e+07
5.40849e+07
5.37532e+07
5.34186e+07
5.30812e+07
5.27411e+07
5.23983e+07
5.20529e+07
5.17048e+07
5.13542e+07
5.10012e+07
5.06457e+07
5.02878e+07
4.99276e+07
4.9565e+07
4.92003e+07
4.88333e+07
4.84642e+07
4.80929e+07
4.77196e+07
4.73443e+07
4.69669e+07
4.65876e+07
4.62064e+07
4.58234e+07
4.54385e+07
4.50518e+07
4.46634e+07
4.42732e+07
4.38814e+07
4.3488e+07
4.30929e+07
4.26963e+07
4.22982e+07
4.18985e+07
4.14974e+07
4.10949e+07
4.06911e+07
4.02858e+07
3.98793e+07
3.94715e+07
3.90625e+07
3.86522e+07
3.82408e+07
3.78283e+07
3.74147e+07
3.7e+07
3.65843e+07
3.61677e+07
3.57501e+07
3.53316e+07
3.49123e+07
3.44922e+07
3.40712e+07
3.36496e+07
3.32272e+07
3.28042e+07
3.23806e+07
3.19564e+07
3.15317e+07
3.11065e+07
3.06809e+07
3.02549e+07
2.98285e+07
2.94019e+07
2.8975e+07
2.8548e+07
2.81207e+07
2.76935e+07
2.72661e+07
2.68388e+07
2.64116e+07
2.59844e+07
2.55575e+07
2.51308e+07
2.47044e+07
2.42784e+07
2.38528e+07
2.34277e+07
2.30031e+07
2.25791e+07
2.21559e+07
2.17334e+07
2.13117e+07
2.08909e+07
2.04711e+07
2.00523e+07
1.96346e+07
1.92182e+07
1.8803e+07
1.83891e+07
1.79768e+07
1.75659e+07
1.71567e+07
1.67491e+07
1.63434e+07
1.59395e+07
1.55376e+07
1.51379e+07
1.47403e+07
1.43449e+07
1.3952e+07
1.35616e+07
1.31739e+07
1.27889e+07
1.24068e+07
1.20277e+07
1.16517e+07
1.12791e+07
1.091e+07
1.05446e+07
1.01831e+07
9.82576e+06
9.47282e+06
9.12456e+06
8.78115e+06
8.44247e+06
6.6231e+07
6.62247e+07
6.62123e+07
6.61937e+07
6.61689e+07
6.61377e+07
6.61001e+07
6.60561e+07
6.60054e+07
6.59482e+07
6.58843e+07
6.58138e+07
6.57366e+07
6.56528e+07
6.55623e+07
6.54651e+07
6.53614e+07
6.52511e+07
6.51343e+07
6.50111e+07
6.48814e+07
6.47454e+07
6.46031e+07
6.44547e+07
6.43001e+07
6.41395e+07
6.3973e+07
6.38006e+07
6.36224e+07
6.34385e+07
6.3249e+07
6.30541e+07
6.28537e+07
6.2648e+07
6.24371e+07
6.2221e+07
6.19999e+07
6.17738e+07
6.15429e+07
6.13072e+07
6.10668e+07
6.08218e+07
6.05722e+07
6.03183e+07
6.00599e+07
5.97974e+07
5.95306e+07
5.92597e+07
5.89848e+07
5.8706e+07
5.84233e+07
5.81368e+07
5.78465e+07
5.75527e+07
5.72552e+07
5.69542e+07
5.66498e+07
5.6342e+07
5.6031e+07
5.57166e+07
5.53991e+07
5.50785e+07
5.47548e+07
5.44282e+07
5.40985e+07
5.37661e+07
5.34308e+07
5.30927e+07
5.27519e+07
5.24084e+07
5.20624e+07
5.17138e+07
5.13627e+07
5.10091e+07
5.06531e+07
5.02948e+07
4.99341e+07
4.95712e+07
4.9206e+07
4.88387e+07
4.84692e+07
4.80976e+07
4.7724e+07
4.73484e+07
4.69707e+07
4.65912e+07
4.62098e+07
4.58265e+07
4.54414e+07
4.50545e+07
4.46659e+07
4.42756e+07
4.38836e+07
4.349e+07
4.30948e+07
4.2698e+07
4.22998e+07
4.19e+07
4.14988e+07
4.10962e+07
4.06922e+07
4.02869e+07
3.98803e+07
3.94724e+07
3.90633e+07
3.8653e+07
3.82416e+07
3.7829e+07
3.74153e+07
3.70006e+07
3.65849e+07
3.61682e+07
3.57506e+07
3.5332e+07
3.49127e+07
3.44925e+07
3.40715e+07
3.36499e+07
3.32275e+07
3.28044e+07
3.23808e+07
3.19566e+07
3.15319e+07
3.11067e+07
3.0681e+07
3.0255e+07
2.98287e+07
2.9402e+07
2.89751e+07
2.85481e+07
2.81208e+07
2.76935e+07
2.72662e+07
2.68389e+07
2.64116e+07
2.59845e+07
2.55575e+07
2.51308e+07
2.47044e+07
2.42784e+07
2.38528e+07
2.34277e+07
2.30031e+07
2.25792e+07
2.21559e+07
2.17334e+07
2.13117e+07
2.08909e+07
2.04711e+07
2.00523e+07
1.96346e+07
1.92182e+07
1.8803e+07
1.83891e+07
1.79767e+07
1.75659e+07
1.71566e+07
1.67491e+07
1.63433e+07
1.59395e+07
1.55376e+07
1.51378e+07
1.47402e+07
1.43449e+07
1.3952e+07
1.35615e+07
1.31737e+07
1.27887e+07
1.24065e+07
1.20274e+07
1.16514e+07
1.12787e+07
1.09094e+07
1.05438e+07
1.01821e+07
9.8244e+06
9.47097e+06
9.12199e+06
8.77754e+06
8.4374e+06
6.64076e+07
6.64008e+07
6.63877e+07
6.63682e+07
6.63422e+07
6.63095e+07
6.62702e+07
6.62241e+07
6.61713e+07
6.61116e+07
6.60451e+07
6.59717e+07
6.58915e+07
6.58044e+07
6.57106e+07
6.561e+07
6.55026e+07
6.53887e+07
6.52681e+07
6.5141e+07
6.50075e+07
6.48676e+07
6.47214e+07
6.45691e+07
6.44106e+07
6.42461e+07
6.40758e+07
6.38996e+07
6.37177e+07
6.35301e+07
6.33371e+07
6.31386e+07
6.29348e+07
6.27257e+07
6.25115e+07
6.22923e+07
6.20681e+07
6.1839e+07
6.16052e+07
6.13666e+07
6.11235e+07
6.08758e+07
6.06238e+07
6.03674e+07
6.01067e+07
5.98419e+07
5.95729e+07
5.93e+07
5.90231e+07
5.87423e+07
5.84577e+07
5.81695e+07
5.78775e+07
5.7582e+07
5.7283e+07
5.69806e+07
5.66748e+07
5.63656e+07
5.60533e+07
5.57377e+07
5.54191e+07
5.50973e+07
5.47726e+07
5.44449e+07
5.41144e+07
5.3781e+07
5.34448e+07
5.31059e+07
5.27643e+07
5.24202e+07
5.20734e+07
5.17241e+07
5.13724e+07
5.10182e+07
5.06617e+07
5.03028e+07
4.99416e+07
4.95782e+07
4.92126e+07
4.88449e+07
4.8475e+07
4.8103e+07
4.77291e+07
4.73531e+07
4.69752e+07
4.65953e+07
4.62136e+07
4.58301e+07
4.54447e+07
4.50576e+07
4.46688e+07
4.42783e+07
4.38861e+07
4.34923e+07
4.3097e+07
4.27001e+07
4.23016e+07
4.19018e+07
4.15004e+07
4.10977e+07
4.06936e+07
4.02882e+07
3.98815e+07
3.94735e+07
3.90643e+07
3.86539e+07
3.82424e+07
3.78298e+07
3.7416e+07
3.70013e+07
3.65855e+07
3.61687e+07
3.57511e+07
3.53325e+07
3.49131e+07
3.44929e+07
3.40719e+07
3.36502e+07
3.32278e+07
3.28047e+07
3.23811e+07
3.19568e+07
3.15321e+07
3.11069e+07
3.06812e+07
3.02552e+07
2.98288e+07
2.94021e+07
2.89753e+07
2.85482e+07
2.81209e+07
2.76936e+07
2.72663e+07
2.68389e+07
2.64117e+07
2.59845e+07
2.55576e+07
2.51309e+07
2.47045e+07
2.42785e+07
2.38528e+07
2.34277e+07
2.30031e+07
2.25792e+07
2.21559e+07
2.17334e+07
2.13117e+07
2.08909e+07
2.04711e+07
2.00523e+07
1.96346e+07
1.92182e+07
1.8803e+07
1.83891e+07
1.79767e+07
1.75659e+07
1.71566e+07
1.67491e+07
1.63433e+07
1.59395e+07
1.55376e+07
1.51378e+07
1.47401e+07
1.43448e+07
1.39518e+07
1.35614e+07
1.31736e+07
1.27885e+07
1.24063e+07
1.2027e+07
1.16509e+07
1.12781e+07
1.09087e+07
1.0543e+07
1.0181e+07
9.82291e+06
9.46898e+06
9.1193e+06
8.77388e+06
8.43246e+06
6.66128e+07
6.66055e+07
6.65915e+07
6.65709e+07
6.65433e+07
6.65089e+07
6.64675e+07
6.6419e+07
6.63634e+07
6.63007e+07
6.6231e+07
6.61541e+07
6.60702e+07
6.59793e+07
6.58815e+07
6.57767e+07
6.56651e+07
6.55467e+07
6.54216e+07
6.529e+07
6.51519e+07
6.50074e+07
6.48567e+07
6.46997e+07
6.45367e+07
6.43678e+07
6.41929e+07
6.40123e+07
6.38261e+07
6.36344e+07
6.34371e+07
6.32346e+07
6.30268e+07
6.28139e+07
6.2596e+07
6.23731e+07
6.21453e+07
6.19128e+07
6.16757e+07
6.14339e+07
6.11877e+07
6.09371e+07
6.06821e+07
6.04229e+07
6.01596e+07
5.98922e+07
5.96208e+07
5.93454e+07
5.90663e+07
5.87833e+07
5.84967e+07
5.82064e+07
5.79126e+07
5.76152e+07
5.73145e+07
5.70104e+07
5.6703e+07
5.63923e+07
5.60785e+07
5.57616e+07
5.54416e+07
5.51186e+07
5.47927e+07
5.44639e+07
5.41322e+07
5.37978e+07
5.34607e+07
5.31209e+07
5.27784e+07
5.24334e+07
5.20859e+07
5.17358e+07
5.13834e+07
5.10286e+07
5.06714e+07
5.03119e+07
4.99502e+07
4.95862e+07
4.92201e+07
4.88519e+07
4.84816e+07
4.81092e+07
4.77348e+07
4.73585e+07
4.69802e+07
4.66e+07
4.6218e+07
4.58341e+07
4.54485e+07
4.50612e+07
4.46721e+07
4.42813e+07
4.38889e+07
4.3495e+07
4.30994e+07
4.27023e+07
4.23037e+07
4.19037e+07
4.15022e+07
4.10994e+07
4.06952e+07
4.02896e+07
3.98828e+07
3.94747e+07
3.90655e+07
3.8655e+07
3.82434e+07
3.78306e+07
3.74168e+07
3.7002e+07
3.65862e+07
3.61694e+07
3.57517e+07
3.53331e+07
3.49136e+07
3.44933e+07
3.40723e+07
3.36506e+07
3.32281e+07
3.2805e+07
3.23813e+07
3.19571e+07
3.15323e+07
3.11071e+07
3.06814e+07
3.02554e+07
2.9829e+07
2.94023e+07
2.89754e+07
2.85483e+07
2.8121e+07
2.76937e+07
2.72664e+07
2.6839e+07
2.64118e+07
2.59846e+07
2.55577e+07
2.51309e+07
2.47045e+07
2.42785e+07
2.38529e+07
2.34278e+07
2.30032e+07
2.25792e+07
2.21559e+07
2.17334e+07
2.13117e+07
2.08909e+07
2.04711e+07
2.00523e+07
1.96346e+07
1.92182e+07
1.8803e+07
1.83891e+07
1.79767e+07
1.75659e+07
1.71566e+07
1.67491e+07
1.63433e+07
1.59394e+07
1.55375e+07
1.51377e+07
1.47401e+07
1.43447e+07
1.39517e+07
1.35613e+07
1.31734e+07
1.27883e+07
1.2406e+07
1.20267e+07
1.16505e+07
1.12776e+07
1.0908e+07
1.0542e+07
1.01798e+07
9.82133e+06
9.4669e+06
9.11655e+06
8.77023e+06
8.4277e+06
6.68482e+07
6.68402e+07
6.68253e+07
6.68032e+07
6.67739e+07
6.67372e+07
6.66932e+07
6.66417e+07
6.65829e+07
6.65166e+07
6.6443e+07
6.6362e+07
6.62737e+07
6.61782e+07
6.60755e+07
6.59657e+07
6.5849e+07
6.57255e+07
6.55952e+07
6.54582e+07
6.53148e+07
6.5165e+07
6.50089e+07
6.48466e+07
6.46784e+07
6.45042e+07
6.43243e+07
6.41387e+07
6.39475e+07
6.37509e+07
6.3549e+07
6.33418e+07
6.31296e+07
6.29123e+07
6.26901e+07
6.24631e+07
6.22314e+07
6.1995e+07
6.17541e+07
6.15088e+07
6.12591e+07
6.10051e+07
6.0747e+07
6.04847e+07
6.02183e+07
5.99481e+07
5.96739e+07
5.93959e+07
5.91142e+07
5.88289e+07
5.85399e+07
5.82474e+07
5.79514e+07
5.76521e+07
5.73494e+07
5.70434e+07
5.67343e+07
5.64219e+07
5.61065e+07
5.5788e+07
5.54666e+07
5.51422e+07
5.4815e+07
5.44849e+07
5.41521e+07
5.38165e+07
5.34783e+07
5.31374e+07
5.2794e+07
5.24481e+07
5.20997e+07
5.17488e+07
5.13956e+07
5.104e+07
5.06821e+07
5.0322e+07
4.99596e+07
4.95951e+07
4.92284e+07
4.88597e+07
4.84888e+07
4.8116e+07
4.77412e+07
4.73644e+07
4.69857e+07
4.66052e+07
4.62228e+07
4.58387e+07
4.54527e+07
4.50651e+07
4.46757e+07
4.42847e+07
4.38921e+07
4.34979e+07
4.31021e+07
4.27049e+07
4.23061e+07
4.19059e+07
4.15043e+07
4.11013e+07
4.06969e+07
4.02912e+07
3.98843e+07
3.94761e+07
3.90667e+07
3.86561e+07
3.82444e+07
3.78316e+07
3.74178e+07
3.70028e+07
3.65869e+07
3.61701e+07
3.57523e+07
3.53337e+07
3.49142e+07
3.44939e+07
3.40728e+07
3.3651e+07
3.32285e+07
3.28054e+07
3.23817e+07
3.19574e+07
3.15326e+07
3.11073e+07
3.06816e+07
3.02556e+07
2.98292e+07
2.94025e+07
2.89755e+07
2.85484e+07
2.81212e+07
2.76938e+07
2.72665e+07
2.68391e+07
2.64118e+07
2.59847e+07
2.55577e+07
2.5131e+07
2.47046e+07
2.42785e+07
2.38529e+07
2.34278e+07
2.30032e+07
2.25792e+07
2.2156e+07
2.17334e+07
2.13117e+07
2.08909e+07
2.04711e+07
2.00523e+07
1.96346e+07
1.92182e+07
1.8803e+07
1.83891e+07
1.79767e+07
1.75659e+07
1.71566e+07
1.6749e+07
1.63433e+07
1.59394e+07
1.55375e+07
1.51376e+07
1.474e+07
1.43446e+07
1.39516e+07
1.35611e+07
1.31732e+07
1.2788e+07
1.24057e+07
1.20263e+07
1.165e+07
1.1277e+07
1.09073e+07
1.0541e+07
1.01785e+07
9.81969e+06
9.46477e+06
9.11377e+06
8.76664e+06
8.42313e+06
6.71157e+07
6.7107e+07
6.70908e+07
6.7067e+07
6.70355e+07
6.69961e+07
6.69489e+07
6.68939e+07
6.68311e+07
6.67605e+07
6.66822e+07
6.65962e+07
6.65026e+07
6.64016e+07
6.62933e+07
6.61777e+07
6.6055e+07
6.59253e+07
6.57889e+07
6.56458e+07
6.54961e+07
6.53401e+07
6.51779e+07
6.50096e+07
6.48353e+07
6.46552e+07
6.44695e+07
6.42782e+07
6.40815e+07
6.38795e+07
6.36722e+07
6.34599e+07
6.32427e+07
6.30205e+07
6.27936e+07
6.25621e+07
6.23259e+07
6.20853e+07
6.18403e+07
6.1591e+07
6.13374e+07
6.10798e+07
6.0818e+07
6.05523e+07
6.02827e+07
6.00093e+07
5.97321e+07
5.94513e+07
5.91668e+07
5.88788e+07
5.85872e+07
5.82923e+07
5.7994e+07
5.76924e+07
5.73876e+07
5.70796e+07
5.67685e+07
5.64543e+07
5.61371e+07
5.5817e+07
5.54939e+07
5.5168e+07
5.48393e+07
5.45079e+07
5.41738e+07
5.3837e+07
5.34976e+07
5.31556e+07
5.28111e+07
5.24642e+07
5.21148e+07
5.1763e+07
5.1409e+07
5.10526e+07
5.06939e+07
5.0333e+07
4.997e+07
4.96048e+07
4.92375e+07
4.88682e+07
4.84968e+07
4.81235e+07
4.77481e+07
4.73709e+07
4.69918e+07
4.66109e+07
4.62281e+07
4.58436e+07
4.54573e+07
4.50694e+07
4.46797e+07
4.42884e+07
4.38956e+07
4.35011e+07
4.31051e+07
4.27076e+07
4.23087e+07
4.19083e+07
4.15065e+07
4.11033e+07
4.06988e+07
4.0293e+07
3.98859e+07
3.94776e+07
3.90681e+07
3.86574e+07
3.82456e+07
3.78327e+07
3.74187e+07
3.70038e+07