/*--------------------------------*- C++ -*----------------------------------*\
| =========                 |                                                 |
| \\      /  F ield         | OpenFOAM: The Open Source CFD Toolbox           |
|  \\    /   O peration     | Version:  2.1.x                                 |
|   \\  /    A nd           | Web:      www.OpenFOAM.org                      |
|    \\/     M anipulation  |                                                 |
\*---------------------------------------------------------------------------*/
FoamFile
{
    version     2.0;
    format      ascii;
    class       volVectorField;
    location    "0.004";
    object      U;
}
// * * * * * * * * * * * * * * * * * * * * * * * * * * * * * * * * * * * * * //

dimensions      [0 1 -1 0 0 0 0];

internalField   nonuniform List<vector> 
12225
(
(7.19554 0.455142 0)
(4.44401 0.199184 0)
(3.07174 0.0279586 0)
(2.46373 -0.0124631 0)
(2.16235 -0.00967412 0)
(2.04926 -0.00531933 0)
(2.0426 -0.0142522 0)
(2.04603 -0.00732436 0)
(1.99099 0.00929317 0)
(1.92025 0.00500884 0)
(1.997 -0.0153992 0)
(2.09756 -0.0181557 0)
(2.18169 -0.00411759 0)
(2.15134 0.00610252 0)
(2.19385 -0.000312002 0)
(2.28049 -0.0340718 0)
(2.54971 -0.0238096 0)
(2.65372 -0.0518756 0)
(9.65104 1.00251 0)
(8.90348 0.819807 0)
(7.83412 0.409614 0)
(6.93616 0.20137 0)
(6.20924 0.107334 0)
(5.87092 0.0412823 0)
(5.75489 -0.00863898 0)
(5.56981 0.0080664 0)
(5.43429 0.049866 0)
(5.29148 0.00173904 0)
(5.41217 -0.0577657 0)
(5.50885 -0.0608186 0)
(5.59487 -0.0134095 0)
(5.52582 0.00793383 0)
(5.62322 -0.0402524 0)
(5.81113 -0.128866 0)
(6.05316 -0.163087 0)
(6.30334 -0.206086 0)
(10.1382 0.899179 0)
(10.6348 0.920583 0)
(10.4358 0.55826 0)
(10.0032 0.377371 0)
(9.34687 0.284391 0)
(8.96025 0.143593 0)
(8.88748 0.0546163 0)
(8.63019 0.0801702 0)
(8.43405 0.123151 0)
(8.23275 0.0195923 0)
(8.22606 -0.104253 0)
(8.33564 -0.0940499 0)
(8.44763 0.00244236 0)
(8.39275 0.0267602 0)
(8.48695 -0.10063 0)
(8.57521 -0.248191 0)
(8.74925 -0.283755 0)
(8.87857 -0.333265 0)
(10.0387 0.662155 0)
(10.7319 0.808193 0)
(10.9367 0.559536 0)
(11.1634 0.421815 0)
(10.9307 0.37053 0)
(10.5821 0.162738 0)
(10.5779 0.0494847 0)
(10.5943 0.163048 0)
(10.6338 0.256139 0)
(10.5 0.0905435 0)
(10.2824 -0.132182 0)
(10.3237 -0.189274 0)
(10.4624 -0.0359082 0)
(10.5471 0.0380883 0)
(10.7857 -0.0876523 0)
(10.8073 -0.24795 0)
(10.802 -0.317631 0)
(10.7476 -0.38811 0)
(9.80363 0.542657 0)
(10.3345 0.750537 0)
(10.8912 0.471128 0)
(11.4815 0.351297 0)
(11.4513 0.470863 0)
(11.1456 0.282907 0)
(11.052 -0.00418049 0)
(11.2178 0.0220721 0)
(11.4589 0.176311 0)
(11.4218 0.160865 0)
(11.2328 -0.023697 0)
(11.2099 -0.171819 0)
(11.2455 -0.0825671 0)
(11.453 -0.0900331 0)
(11.6933 -0.233434 0)
(11.6647 -0.279933 0)
(11.6148 -0.289444 0)
(11.5148 -0.300115 0)
(9.94174 0.408036 0)
(10.3896 0.55843 0)
(10.7833 0.327173 0)
(11.0132 0.263217 0)
(11.111 0.430007 0)
(11.1806 0.258097 0)
(11.0684 -0.0275113 0)
(10.9982 0.0482609 0)
(11.1592 0.223779 0)
(11.3482 0.149877 0)
(11.3694 -0.0861863 0)
(11.3064 -0.221729 0)
(11.3434 -0.177824 0)
(11.4321 -0.145528 0)
(11.4496 -0.188276 0)
(11.5842 -0.266257 0)
(11.6358 -0.281067 0)
(11.4796 -0.235055 0)
(9.99479 0.197933 0)
(10.3567 0.446424 0)
(10.6248 0.308815 0)
(10.6832 0.259363 0)
(10.7985 0.400142 0)
(10.9544 0.299954 0)
(10.9013 0.0193954 0)
(10.8237 -0.0423369 0)
(10.9817 0.0415339 0)
(11.2155 0.0661077 0)
(11.2823 0.0113843 0)
(11.2404 -0.110557 0)
(11.19 -0.155245 0)
(11.1992 -0.160872 0)
(11.3165 -0.339804 0)
(11.3205 -0.433887 0)
(11.1755 -0.242806 0)
(11.2419 -0.215097 0)
(9.97783 0.149762 0)
(10.3488 0.348708 0)
(10.5732 0.276977 0)
(10.5361 0.26665 0)
(10.5891 0.326485 0)
(10.7675 0.195918 0)
(10.7748 -0.000417374 0)
(10.6834 0.00300213 0)
(10.7328 0.0480901 0)
(10.872 -0.0129027 0)
(11.0026 -0.117011 0)
(11.1291 -0.168451 0)
(11.1992 -0.188933 0)
(11.22 -0.21665 0)
(11.2188 -0.223075 0)
(11.1991 -0.205051 0)
(11.2936 -0.286364 0)
(11.4972 -0.40273 0)
(10.0597 0.145455 0)
(10.2353 0.26122 0)
(10.4351 0.242384 0)
(10.5162 0.287649 0)
(10.6047 0.345519 0)
(10.6801 0.232431 0)
(10.5989 0.0280324 0)
(10.5468 -0.0501163 0)
(10.6359 -0.0264994 0)
(10.7444 -0.0493123 0)
(10.7522 -0.102156 0)
(10.7499 -0.162865 0)
(10.7999 -0.213718 0)
(10.8488 -0.230608 0)
(10.8963 -0.296462 0)
(11.0104 -0.435122 0)
(11.093 -0.441457 0)
(11.1173 -0.247609 0)
(10.1102 0.104956 0)
(10.2891 0.241934 0)
(10.3427 0.233793 0)
(10.3389 0.261907 0)
(10.4565 0.286838 0)
(10.6228 0.179024 0)
(10.6282 0.0379701 0)
(10.5629 -0.0199848 0)
(10.524 -0.0356998 0)
(10.5584 -0.0827832 0)
(10.6313 -0.151279 0)
(10.7192 -0.200115 0)
(10.7699 -0.259928 0)
(10.7793 -0.282571 0)
(10.7949 -0.265318 0)
(10.8428 -0.320901 0)
(10.854 -0.420444 0)
(11.0003 -0.499048 0)
(10.1165 0.0517189 0)
(10.2608 0.15981 0)
(10.3907 0.183696 0)
(10.5258 0.218864 0)
(10.6805 0.254058 0)
(10.8233 0.190103 0)
(10.858 0.0590548 0)
(10.857 -0.0207272 0)
(10.8627 -0.0531155 0)
(10.8581 -0.101064 0)
(10.8027 -0.177277 0)
(10.7472 -0.213694 0)
(10.7143 -0.24596 0)
(10.6825 -0.306264 0)
(10.6676 -0.349808 0)
(10.7421 -0.396033 0)
(10.8359 -0.557895 0)
(10.8533 -0.451581 0)
(10.2339 0.0521141 0)
(10.2873 0.104195 0)
(10.2719 0.149103 0)
(10.2934 0.169574 0)
(10.3951 0.158922 0)
(10.5006 0.0991456 0)
(10.5271 0.0197674 0)
(10.5471 -0.0200985 0)
(10.5613 -0.0493344 0)
(10.56 -0.0680892 0)
(10.5574 -0.085314 0)
(10.5549 -0.136247 0)
(10.5691 -0.217297 0)
(10.5847 -0.256665 0)
(10.5786 -0.263143 0)
(10.6597 -0.446266 0)
(10.7134 -0.66003 0)
(10.5671 -0.343985 0)
(10.0169 -0.0126877 0)
(10.1563 0.151248 0)
(10.1612 0.151308 0)
(10.167 0.150942 0)
(10.2225 0.165228 0)
(10.2848 0.126589 0)
(10.3399 0.0421204 0)
(10.4098 -0.0330206 0)
(10.4635 -0.103014 0)
(10.4935 -0.147017 0)
(10.5125 -0.18474 0)
(10.5376 -0.233384 0)
(10.5738 -0.277506 0)
(10.6063 -0.36114 0)
(10.6583 -0.44398 0)
(10.733 -0.407177 0)
(10.6557 -0.357725 0)
(10.5869 -0.7316 0)
(9.81304 -0.0111775 0)
(9.98849 0.0165237 0)
(10.0642 0.0927512 0)
(10.1462 0.127559 0)
(10.2794 0.0896403 0)
(10.4021 0.004992 0)
(10.4804 -0.0681107 0)
(10.5169 -0.095519 0)
(10.5159 -0.107276 0)
(10.4902 -0.124187 0)
(10.4444 -0.14534 0)
(10.3983 -0.198895 0)
(10.3643 -0.252434 0)
(10.3553 -0.322219 0)
(10.3467 -0.389836 0)
(10.3946 -0.424361 0)
(10.5083 -0.583678 0)
(10.4437 -0.939259 0)
(10.0623 0.0423714 0)
(10.0708 0.000808943 0)
(10.1208 -0.00089815 0)
(10.2168 -0.0118353 0)
(10.2895 -0.0140085 0)
(10.3144 -0.0221611 0)
(10.3245 -0.0343592 0)
(10.3322 -0.0416689 0)
(10.345 -0.0602066 0)
(10.3718 -0.0946477 0)
(10.3862 -0.124945 0)
(10.3819 -0.180598 0)
(10.3564 -0.261841 0)
(10.3503 -0.367456 0)
(10.3415 -0.47377 0)
(10.3624 -0.528162 0)
(10.4155 -0.383452 0)
(10.3817 -0.459626 0)
(9.91212 0.167597 0)
(9.97749 0.030212 0)
(9.99872 -0.034701 0)
(9.98021 -0.0286609 0)
(9.99253 -0.013173 0)
(10.0538 -0.0298322 0)
(10.142 -0.0761522 0)
(10.2274 -0.124414 0)
(10.3019 -0.158466 0)
(10.3771 -0.17658 0)
(10.4139 -0.177952 0)
(10.3944 -0.187054 0)
(10.3265 -0.218202 0)
(10.2843 -0.269528 0)
(10.2549 -0.357022 0)
(10.2125 -0.529733 0)
(10.1684 -0.690873 0)
(10.214 -0.333165 0)
(9.87554 0.176978 0)
(9.91387 0.0134479 0)
(9.91899 -0.0449055 0)
(9.94609 -0.0510286 0)
(10.0241 -0.0983433 0)
(10.1309 -0.185647 0)
(10.2267 -0.245579 0)
(10.2723 -0.255729 0)
(10.2943 -0.224177 0)
(10.3274 -0.182673 0)
(10.3624 -0.148166 0)
(10.3694 -0.133669 0)
(10.354 -0.152607 0)
(10.343 -0.213082 0)
(10.3374 -0.290061 0)
(10.319 -0.332181 0)
(10.2277 -0.437132 0)
(10.0953 -0.74873 0)
(10.2242 0.0385212 0)
(10.1737 -0.0203467 0)
(10.1644 -0.0895525 0)
(10.0929 -0.169938 0)
(10.0365 -0.223121 0)
(10.0424 -0.2587 0)
(10.0879 -0.271971 0)
(10.1088 -0.270471 0)
(10.1175 -0.258897 0)
(10.1629 -0.248768 0)
(10.2497 -0.237762 0)
(10.322 -0.228023 0)
(10.357 -0.219918 0)
(10.387 -0.222733 0)
(10.4314 -0.235904 0)
(10.4612 -0.276025 0)
(10.462 -0.303421 0)
(10.3813 -0.270499 0)
(10.2059 -0.0563985 0)
(10.2119 0.0876935 0)
(10.2381 0.0910742 0)
(10.2219 0.00478297 0)
(10.1913 -0.0890895 0)
(10.179 -0.181584 0)
(10.2075 -0.255735 0)
(10.2093 -0.30571 0)
(10.1647 -0.328565 0)
(10.1391 -0.338468 0)
(10.144 -0.348061 0)
(10.1553 -0.355542 0)
(10.151 -0.352632 0)
(10.1737 -0.343335 0)
(10.2301 -0.328348 0)
(10.2899 -0.323134 0)
(10.3094 -0.33494 0)
(10.2926 -0.380249 0)
(9.99617 -0.224064 0)
(10.0541 -0.0420777 0)
(10.1693 0.00496304 0)
(10.2937 -0.109125 0)
(10.3647 -0.218092 0)
(10.3851 -0.263691 0)
(10.3995 -0.264916 0)
(10.3946 -0.250102 0)
(10.3544 -0.234553 0)
(10.3199 -0.228788 0)
(10.3001 -0.247544 0)
(10.2704 -0.285023 0)
(10.2161 -0.321019 0)
(10.173 -0.351992 0)
(10.1662 -0.367957 0)
(10.1741 -0.377588 0)
(10.1567 -0.37897 0)
(10.1007 -0.379182 0)
(10.0984 -0.120415 0)
(10.0659 -0.0887247 0)
(10.0897 -0.12399 0)
(10.1484 -0.190378 0)
(10.2263 -0.22203 0)
(10.2829 -0.216767 0)
(10.3344 -0.20522 0)
(10.3742 -0.211906 0)
(10.3932 -0.227234 0)
(10.4027 -0.245954 0)
(10.4143 -0.264015 0)
(10.4032 -0.278318 0)
(10.3685 -0.282215 0)
(10.3402 -0.280324 0)
(10.3416 -0.279522 0)
(10.3489 -0.286849 0)
(10.33 -0.302358 0)
(10.2786 -0.323272 0)
(9.90326 -0.0373202 0)
(9.95296 -0.0264622 0)
(10.0704 -0.121301 0)
(10.176 -0.22982 0)
(10.2705 -0.313912 0)
(10.3401 -0.352815 0)
(10.3941 -0.338533 0)
(10.4172 -0.306432 0)
(10.416 -0.27347 0)
(10.4021 -0.252757 0)
(10.394 -0.247276 0)
(10.3826 -0.252774 0)
(10.3628 -0.26119 0)
(10.3567 -0.270031 0)
(10.3739 -0.281928 0)
(10.3904 -0.296706 0)
(10.3789 -0.311439 0)
(10.3293 -0.321723 0)
(10.1089 -0.107606 0)
(10.2025 -0.187697 0)
(10.3408 -0.316512 0)
(10.4652 -0.389291 0)
(10.5422 -0.363491 0)
(10.5634 -0.294768 0)
(10.547 -0.232525 0)
(10.5024 -0.212414 0)
(10.4561 -0.223679 0)
(10.435 -0.246026 0)
(10.4511 -0.266562 0)
(10.486 -0.282314 0)
(10.5137 -0.289056 0)
(10.5419 -0.289686 0)
(10.5681 -0.291724 0)
(10.5774 -0.293721 0)
(10.5489 -0.298533 0)
(10.4841 -0.297321 0)
(10.0174 -0.154113 0)
(10.1545 -0.262851 0)
(10.2668 -0.297182 0)
(10.3112 -0.326118 0)
(10.348 -0.333818 0)
(10.424 -0.302557 0)
(10.5343 -0.253469 0)
(10.6346 -0.230994 0)
(10.6981 -0.240387 0)
(10.7309 -0.269693 0)
(10.7471 -0.299994 0)
(10.7486 -0.316493 0)
(10.73 -0.310232 0)
(10.7068 -0.286185 0)
(10.6883 -0.261713 0)
(10.6664 -0.245903 0)
(10.6255 -0.244683 0)
(10.5686 -0.245724 0)
(10.0141 -0.256813 0)
(10.1194 -0.400177 0)
(10.3237 -0.427674 0)
(10.5185 -0.42753 0)
(10.6356 -0.410674 0)
(10.6883 -0.382859 0)
(10.7221 -0.351366 0)
(10.75 -0.328274 0)
(10.7674 -0.312099 0)
(10.7685 -0.303422 0)
(10.7584 -0.295282 0)
(10.7359 -0.286956 0)
(10.7035 -0.272978 0)
(10.678 -0.254793 0)
(10.672 -0.245883 0)
(10.6755 -0.244447 0)
(10.6731 -0.252116 0)
(10.6611 -0.250506 0)
(9.99164 -0.25478 0)
(10.2094 -0.444723 0)
(10.5067 -0.478594 0)
(10.7405 -0.452125 0)
(10.8618 -0.400097 0)
(10.9024 -0.35437 0)
(10.9153 -0.322723 0)
(10.9242 -0.308691 0)
(10.9271 -0.301881 0)
(10.9204 -0.294568 0)
(10.908 -0.279783 0)
(10.8853 -0.262518 0)
(10.8473 -0.244757 0)
(10.8043 -0.228847 0)
(10.7599 -0.227245 0)
(10.7182 -0.235442 0)
(10.6689 -0.2503 0)
(10.6185 -0.25274 0)
(9.92 -0.459057 0)
(10.3415 -0.672143 0)
(10.7274 -0.632096 0)
(10.9713 -0.517304 0)
(11.0562 -0.435928 0)
(11.0499 -0.393454 0)
(11.0237 -0.367898 0)
(10.9694 -0.346243 0)
(10.8833 -0.32417 0)
(10.7685 -0.29991 0)
(10.6616 -0.273308 0)
(10.5694 -0.248909 0)
(10.4988 -0.225384 0)
(10.4428 -0.204582 0)
(10.3961 -0.199198 0)
(10.3455 -0.205354 0)
(10.2849 -0.217451 0)
(10.2072 -0.216192 0)
(9.86642 -0.52176 0)
(10.3687 -0.796885 0)
(10.6196 -0.708226 0)
(10.6505 -0.54581 0)
(10.5144 -0.435729 0)
(10.2837 -0.369118 0)
(10.0319 -0.31882 0)
(9.77188 -0.269769 0)
(9.52201 -0.224947 0)
(9.28449 -0.191018 0)
(9.0849 -0.175044 0)
(8.90637 -0.169158 0)
(8.75115 -0.163204 0)
(8.60186 -0.15175 0)
(8.46318 -0.146919 0)
(8.32299 -0.146172 0)
(8.19238 -0.149391 0)
(8.05772 -0.139249 0)
(9.94184 -0.733674 0)
(9.89022 -0.972754 0)
(9.34913 -0.753438 0)
(8.62757 -0.520188 0)
(7.9229 -0.345268 0)
(7.32496 -0.227305 0)
(6.84888 -0.155237 0)
(6.47215 -0.110089 0)
(6.1761 -0.0811872 0)
(5.93733 -0.0655221 0)
(5.73999 -0.0594013 0)
(5.56568 -0.0537329 0)
(5.4113 -0.0478953 0)
(5.27651 -0.0415984 0)
(5.1562 -0.0444209 0)
(5.04333 -0.0481648 0)
(4.93669 -0.0585329 0)
(4.81881 -0.0549685 0)
(8.37509 -0.409101 0)
(5.98538 -0.361307 0)
(4.28465 -0.130226 0)
(3.27241 -0.0117123 0)
(2.7121 0.0286728 0)
(2.39859 0.0341433 0)
(2.2097 0.0267443 0)
(2.08228 0.0191836 0)
(1.99112 0.0138979 0)
(1.92111 0.00985754 0)
(1.86036 0.00575368 0)
(1.80247 0.00152351 0)
(1.74627 -0.00203466 0)
(1.697 -0.00343385 0)
(1.64486 -0.00492204 0)
(1.59812 -0.0053464 0)
(1.53195 -0.0149594 0)
(1.46649 -0.00354273 0)
(-0.0413275 0.0829917 0)
(-0.115091 0.077278 0)
(-0.183511 0.0746785 0)
(-0.253029 0.0728321 0)
(-0.320255 0.070441 0)
(-0.385856 0.0674511 0)
(-0.448397 0.0638867 4.0667e-20)
(-0.507504 0.0596252 -4.03837e-20)
(-0.56243 0.0547351 0)
(-0.612587 0.0492885 -3.98312e-20)
(-0.657115 0.0433364 0)
(-0.694878 0.0367809 0)
(-0.725858 0.0296504 0)
(-0.749257 0.0221091 3.87867e-20)
(-0.764543 0.0141553 0)
(-0.770724 0.00592353 0)
(-0.767469 -0.0026833 -3.80589e-20)
(-0.754452 -0.0112402 0)
(-0.731231 -0.0199807 0)
(-0.69801 -0.0284885 0)
(-0.654777 -0.0368373 3.71564e-20)
(-0.601428 -0.0447827 0)
(-0.537933 -0.0521105 3.67261e-20)
(-0.465377 -0.0590909 0)
(-0.384039 -0.0653997 0)
(-0.294592 -0.0708227 3.60927e-20)
(-0.197528 -0.0753798 0)
(-0.0936277 -0.0792457 -3.56707e-20)
(0.0158484 -0.0821087 0)
(0.13009 -0.0841574 3.5243e-20)
(0.248085 -0.0853538 0)
(0.369046 -0.0857376 0)
(0.492094 -0.0853451 0)
(0.616343 -0.0842214 0)
(0.740917 -0.0824363 0)
(0.865022 -0.0800721 -3.38918e-20)
(0.987974 -0.0772014 0)
(1.10913 -0.0738867 6.68275e-20)
(1.22786 -0.0701965 0)
(1.34361 -0.0662124 -6.58442e-20)
(1.45596 -0.0620129 0)
(1.56458 -0.0576594 0)
(1.6691 -0.0532041 6.43243e-20)
(1.76925 -0.0487025 0)
(1.86483 -0.0442117 6.32864e-20)
(1.95575 -0.0397789 -6.27615e-20)
(2.04191 -0.0354391 0)
(2.12321 -0.0312229 -6.17026e-20)
(2.19966 -0.02716 -6.11695e-20)
(2.27133 -0.0232743 0)
(2.33828 -0.0195824 0)
(2.40057 -0.0160978 0)
(2.4583 -0.0128319 0)
(2.51164 -0.0097894 0)
(2.56075 -0.00696854 5.79488e-20)
(2.60577 -0.00436868 0)
(2.64685 -0.0019913 -5.68761e-20)
(2.6842 0.000167911 0)
(2.71801 0.00212146 0)
(2.74847 0.00388091 5.52762e-20)
(2.77573 0.00545153 0)
(2.79998 0.00683968 -5.42185e-20)
(2.82144 0.00805988 0)
(2.84028 0.00912858 0)
(2.85664 0.0100556 0)
(2.8707 0.0108478 5.21306e-20)
(2.88263 0.0115176 0)
(2.89259 0.0120817 0)
(2.90071 0.0125497 5.05928e-20)
(2.90713 0.0129254 0)
(2.91198 0.0132116 4.95823e-20)
(2.91543 0.0134164 0)
(2.91756 0.0135147 0)
(2.91845 0.0135132 0)
(2.91821 0.0134447 -4.75986e-20)
(2.91695 0.0133374 0)
(2.91476 0.0132079 0)
(2.91173 0.0130605 -4.61446e-20)
(2.90792 0.0128961 -4.56664e-20)
(2.9034 0.012716 0)
(2.89824 0.0125254 -4.47198e-20)
(2.8925 0.0123258 0)
(2.8862 0.0121225 -8.75725e-20)
(2.87941 0.0119083 0)
(2.87217 0.0117074 -8.57313e-20)
(2.8645 0.0115276 0)
(2.85645 0.0113521 8.3916e-20)
(2.84804 0.0111711 0)
(2.8393 0.0109831 0)
(2.83029 0.0107934 0)
(2.82103 0.0106075 -8.03617e-20)
(2.81152 0.0104268 0)
(2.8018 0.0102482 7.86221e-20)
(2.79186 0.0100684 0)
(2.78175 0.00988955 -7.69071e-20)
(2.77148 0.009715 -7.60588e-20)
(2.76106 0.00954595 -7.52165e-20)
(2.7505 0.00938043 0)
(2.7398 0.00921659 0)
(2.729 0.00905558 0)
(2.7181 0.00890001 0)
(2.7071 0.00875081 0)
(2.69602 0.00860614 0)
(2.68485 0.00846318 0)
(2.67361 0.00832108 0)
(2.66232 0.00818193 6.78986e-20)
(2.65096 0.00804828 6.71138e-20)
(2.63956 0.00791999 0)
(2.6281 0.00779434 0)
(2.61659 0.00766882 0)
(2.60504 0.0075435 6.40293e-20)
(2.59346 0.00742074 0)
(2.58186 0.00730247 0)
(2.57023 0.00718821 0)
(2.55857 0.00707573 0)
(2.54688 0.0069634 -6.02926e-20)
(2.53518 0.00685133 0)
(2.52346 0.00674096 0)
(2.51173 0.0066336 5.81118e-20)
(2.5 0.00652924 -5.73948e-20)
(2.48825 0.00642689 0)
(2.47649 0.00632554 -5.59753e-20)
(2.46472 0.00622465 0)
(2.45296 0.00612417 5.45751e-20)
(2.44119 0.00602452 0)
(2.42942 0.00592636 0)
(2.41766 0.00583028 0)
(2.40591 0.00573652 0)
(2.39415 0.0056446 0)
(2.3824 0.00555349 -1.00972e-19)
(2.37065 0.00546221 -9.96403e-20)
(2.35891 0.00537057 0)
(2.34718 0.00527937 0)
(2.33547 0.00518982 0)
(2.32376 0.00510263 9.44015e-20)
(2.31207 0.00501736 0)
(2.30039 0.00493272 0)
(2.28871 0.00484747 0)
(2.27705 0.00476149 8.92981e-20)
(2.26541 0.00467587 -8.80428e-20)
(2.25379 0.00459189 0)
(2.24219 0.00450985 0)
(2.2306 0.00442901 -8.43247e-20)
(2.21904 0.00434842 -8.31011e-20)
(2.20748 0.00426763 0)
(2.19595 0.00418682 0)
(2.18444 0.00410661 7.94763e-20)
(2.17296 0.00402782 -7.82831e-20)
(2.16149 0.00395079 0)
(2.15005 0.00387501 0)
(2.13862 0.00379981 -7.47476e-20)
(2.12722 0.00372482 0)
(2.11583 0.00365039 0)
(2.10445 0.00357703 -7.12769e-20)
(2.0931 0.00350487 0)
(2.08175 0.00343449 -6.89981e-20)
(2.07042 0.00336634 0)
(2.05908 0.00330061 0)
(2.04774 0.0032375 0)
(2.03639 0.00317731 6.45219e-20)
(2.025 0.00311999 0)
(2.01356 0.00306674 0)
(2.00206 0.00301913 0)
(1.99046 0.00297597 0)
(1.97871 0.00294872 0)
(1.96682 0.00291384 0)
(1.95457 0.00294049 5.69439e-20)
(1.94228 0.0028763 5.58882e-20)
(1.92879 0.00307743 0)
(1.91639 0.00282629 0)
(1.89952 0.00352824 0)
(1.88881 0.00277553 -5.17394e-20)
(1.86308 0.00438852 0)
(1.85806 0.00319081 9.94334e-20)
(1.8153 0.00543966 -9.74311e-20)
(1.81456 0.00540324 -9.54771e-20)
(1.75354 0.00759459 9.35356e-20)
(1.72815 0.00854405 -9.16527e-20)
(1.67566 0.0248154 8.98099e-20)
(1.48582 -0.000420932 0)
(-0.0419302 0.24845 0)
(-0.117479 0.228563 0)
(-0.187054 0.219914 -8.36502e-20)
(-0.257475 0.214202 0)
(-0.325894 0.206842 8.24595e-20)
(-0.392399 0.197595 8.18762e-20)
(-0.455943 0.186389 4.06304e-20)
(-0.516047 0.173096 4.03886e-20)
(-0.571538 0.157865 0)
(-0.621874 0.140557 3.98374e-20)
(-0.666478 0.12148 0)
(-0.704187 0.100529 0)
(-0.734496 0.077759 -7.80577e-20)
(-0.756635 0.0535229 -3.8796e-20)
(-0.770088 0.0278767 7.70606e-20)
(-0.77397 0.00113266 7.65777e-20)
(-0.767407 -0.0267189 3.80703e-20)
(-0.750306 -0.054869 0)
(-0.722202 -0.0833901 0)
(-0.682996 -0.111635 0)
(-0.632963 -0.139418 3.71493e-20)
(-0.571429 -0.166054 0)
(-0.499214 -0.19141 -1.1021e-19)
(-0.417244 -0.215404 0)
(-0.324873 -0.237289 0)
(-0.223295 -0.25694 -3.61106e-20)
(-0.113648 -0.27415 0)
(0.00389797 -0.289043 3.56904e-20)
(0.12811 -0.301303 7.09594e-20)
(0.257802 -0.31104 -3.52647e-20)
(0.39229 -0.318244 0)
(0.530689 -0.323015 0)
(0.67215 -0.325477 0)
(0.815818 -0.325767 6.87722e-20)
(0.96084 -0.324047 6.83149e-20)
(1.10644 -0.320503 3.39207e-20)
(1.25195 -0.315329 0)
(1.39676 -0.308714 -6.68905e-20)
(1.54026 -0.300849 0)
(1.68192 -0.291925 6.59124e-20)
(1.8213 -0.282122 0)
(1.95805 -0.271605 0)
(2.09181 -0.26053 -6.43998e-20)
(2.22227 -0.249048 0)
(2.3492 -0.237296 -1.9011e-19)
(2.47245 -0.225389 6.28435e-20)
(2.59187 -0.213429 0)
(2.7073 -0.20151 6.17882e-20)
(2.81867 -0.189724 6.12567e-20)
(2.92596 -0.178143 0)
(3.02916 -0.166822 0)
(3.12822 -0.155807 0)
(3.22317 -0.145143 0)
(3.31406 -0.134868 0)
(3.40096 -0.125007 -5.80428e-20)
(3.48393 -0.115574 -1.15014e-19)
(3.56302 -0.106582 5.69712e-20)
(3.63832 -0.0980392 0)
(3.70996 -0.0899508 -1.11807e-19)
(3.77803 -0.0823125 5.53712e-20)
(3.84262 -0.0751178 0)
(3.90383 -0.0683587 5.43143e-20)
(3.96181 -0.0620245 0)
(4.01666 -0.0561013 0)
(4.0685 -0.0505744 1.05486e-19)
(4.11743 -0.045429 -5.22252e-20)
(4.16357 -0.0406467 1.03417e-19)
(4.20706 -0.0362093 -1.0239e-19)
(4.248 -0.0320988 -5.06858e-20)
(4.28649 -0.0282992 0)
(4.32263 -0.0248036 -4.9674e-20)
(4.35655 -0.021585 0)
(4.38834 -0.0186342 0)
(4.4181 -0.0159401 0)
(4.44594 -0.0134774 -4.76857e-20)
(4.47196 -0.0112221 0)
(4.49624 -0.00915466 -9.34242e-20)
(4.51886 -0.00725923 1.3869e-19)
(4.53991 -0.00552578 4.57513e-20)
(4.55946 -0.00393942 0)
(4.5776 -0.00249236 4.48028e-20)
(4.59441 -0.00116423 0)
(4.60996 4.11388e-05 8.77348e-20)
(4.62431 0.00113838 0)
(4.63753 0.00212899 8.58899e-20)
(4.64968 0.00300986 -1.69952e-19)
(4.6608 0.00380216 -8.40708e-20)
(4.67093 0.00452243 0)
(4.68015 0.0051761 0)
(4.68851 0.00576325 0)
(4.69607 0.00629688 8.05093e-20)
(4.70287 0.00678336 0)
(4.70893 0.00721999 -7.87662e-20)
(4.7143 0.00761364 0)
(4.71903 0.0079726 2.31142e-19)
(4.72314 0.00829351 7.61978e-20)
(4.72668 0.00857855 7.53538e-20)
(4.72967 0.00883177 0)
(4.73214 0.00905462 0)
(4.73411 0.00925018 0)
(4.73564 0.00942345 0)
(4.73672 0.00957746 0)
(4.73739 0.00971259 1.40828e-19)
(4.73767 0.00982813 1.39222e-19)
(4.73757 0.0099246 0)
(4.73712 0.0100049 -6.80219e-20)
(4.73634 0.010073 -6.72357e-20)
(4.73525 0.0101306 0)
(4.73386 0.0101767 -1.31359e-19)
(4.73218 0.0102096 0)
(4.73022 0.0102297 6.41452e-20)
(4.72802 0.0102399 0)
(4.72557 0.0102434 0)
(4.7229 0.0102413 -1.23768e-19)
(4.72 0.0102321 0)
(4.71688 0.0102148 6.04022e-20)
(4.71356 0.0101894 0)
(4.71005 0.0101578 0)
(4.70636 0.0101222 5.82174e-20)
(4.7025 0.0100837 5.74993e-20)
(4.69846 0.0100417 0)
(4.69425 0.00999542 -5.60774e-20)
(4.68989 0.00994443 0)
(4.68538 0.00988882 5.46748e-20)
(4.68072 0.00982939 1.07961e-19)
(4.67592 0.00976733 0)
(4.67098 0.0097036 0)
(4.66592 0.00963881 0)
(4.66072 0.00957306 0)
(4.6554 0.00950588 1.01157e-19)
(4.64995 0.00943658 2.99471e-19)
(4.64438 0.00936467 0)
(4.6387 0.00929047 0)
(4.6329 0.00921504 0)
(4.62699 0.00913969 -9.4576e-20)
(4.62097 0.00906501 0)
(4.61484 0.00899042 0)
(4.6086 0.00891452 1.8146e-19)
(4.60225 0.0088363 8.94646e-20)
(4.59579 0.00875624 8.82068e-20)
(4.58923 0.00867594 0)
(4.58257 0.00859652 0)
(4.5758 0.00851796 8.44826e-20)
(4.56893 0.00843938 -8.32575e-20)
(4.56196 0.00835988 0)
(4.55488 0.00827925 0)
(4.54769 0.00819818 -7.96262e-20)
(4.54041 0.00811806 2.35294e-19)
(4.53302 0.00804 0)
(4.52553 0.00796392 0)
(4.51793 0.00788923 7.48898e-20)
(4.51022 0.00781531 0)
(4.50239 0.00774208 1.45131e-19)
(4.49445 0.00767071 -7.1414e-20)
(4.48639 0.00760227 0)
(4.47821 0.00753759 6.91308e-20)
(4.4699 0.0074786 1.36e-19)
(4.46145 0.0074267 0)
(4.45286 0.00738315 0)
(4.44409 0.0073513 -6.46472e-20)
(4.43515 0.0073313 0)
(4.426 0.00732822 1.24891e-19)
(4.41662 0.00734483 0)
(4.40699 0.00738867 0)
(4.39698 0.00746972 0)
(4.38677 0.00758294 0)
(4.37561 0.00781148 -5.70563e-20)
(4.36512 0.00794605 -5.59988e-20)
(4.35098 0.00866949 0)
(4.34234 0.0083114 0)
(4.31964 0.0109716 0)
(4.31921 0.00796679 5.18426e-20)
(4.277 0.0167116 0)
(4.29151 0.00619908 -9.96319e-20)
(4.22516 0.0280982 9.76242e-20)
(4.2364 0.00494979 9.56669e-20)
(4.1754 0.0482665 9.36984e-20)
(4.11703 0.00931152 9.18314e-20)
(4.11062 0.0920708 8.9909e-20)
(3.88523 0.043498 0)
(-0.0430665 0.42049 0)
(-0.124618 0.38866 0)
(-0.19921 0.373854 8.36488e-20)
(-0.275081 0.364389 8.29818e-20)
(-0.348937 0.352171 -8.24597e-20)
(-0.420895 0.336648 -8.18766e-20)
(-0.489966 0.317737 -7.04538e-23)
(-0.555367 0.295321 0)
(-0.616367 0.269604 0)
(-0.672044 0.240347 0)
(-0.721442 0.20784 0)
(-0.7639 0.172153 0)
(-0.7985 0.133429 2.34041e-19)
(-0.824432 0.0919931 0)
(-0.841226 0.0481081 -7.70626e-20)
(-0.847903 0.00238285 -7.65799e-20)
(-0.84331 -0.0452433 0)
(-0.827179 -0.0937492 0)
(-0.799342 -0.142514 0)
(-0.759557 -0.191106 0)
(-0.707727 -0.23866 -7.43233e-20)
(-0.643869 -0.284598 0)
(-0.568913 -0.328273 7.34729e-20)
(-0.482905 -0.369147 0)
(-0.386017 -0.406291 0)
(-0.279853 -0.440145 0)
(-0.165253 -0.469612 1.43596e-19)
(-0.0427715 -0.494865 0)
(0.0864124 -0.515986 -7.09662e-20)
(0.221027 -0.532551 1.41088e-19)
(0.360159 -0.544891 0)
(0.502879 -0.553165 0)
(0.648317 -0.557584 0)
(0.795604 -0.558407 -6.87821e-20)
(0.943869 -0.555941 -6.83255e-20)
(1.09233 -0.550519 0)
(1.24036 -0.542465 0)
(1.38736 -0.532096 1.33847e-19)
(1.53277 -0.51973 1.32876e-19)
(1.6761 -0.505685 -1.31891e-19)
(1.81697 -0.490255 0)
(1.95509 -0.473711 0)
(2.09014 -0.456299 0)
(2.22184 -0.438249 0)
(2.35005 -0.419769 1.26782e-19)
(2.47465 -0.401044 1.25749e-19)
(2.59553 -0.382235 -1.24695e-19)
(2.71258 -0.363488 0)
(2.82573 -0.344921 0)
(2.93502 -0.326639 0)
(3.04046 -0.308733 0)
(3.14203 -0.291279 1.19363e-19)
(3.23975 -0.274336 0)
(3.33368 -0.257948 0)
(3.42391 -0.242149 1.16142e-19)
(3.51049 -0.226971 1.15069e-19)
(3.59347 -0.212434 0)
(3.67294 -0.198544 -2.25861e-19)
(3.74901 -0.185304 1.11865e-19)
(3.82177 -0.172714 -1.10803e-19)
(3.89129 -0.160769 0)
(3.95766 -0.149456 0)
(4.02099 -0.138759 0)
(4.0814 -0.128665 0)
(4.13896 -0.119157 -1.05549e-19)
(4.19377 -0.110211 -2.0902e-19)
(4.24594 -0.101804 -1.03481e-19)
(4.29557 -0.0939141 1.02455e-19)
(4.34274 -0.0865235 0)
(4.38754 -0.0796091 -2.00835e-19)
(4.43008 -0.07314 -1.98818e-19)
(4.47045 -0.0670933 -1.96813e-19)
(4.50874 -0.0614333 1.94821e-19)
(4.54504 -0.0561394 0)
(4.57943 -0.0511956 2.86312e-19)
(4.61199 -0.0465816 0)
(4.64281 -0.0422814 -9.3486e-20)
(4.67196 -0.0382763 -9.25255e-20)
(4.69951 -0.0345515 0)
(4.72554 -0.0310786 0)
(4.75014 -0.0278489 -1.79337e-19)
(4.77336 -0.0248367 0)
(4.79525 -0.0220481 -1.75595e-19)
(4.81591 -0.019467 0)
(4.83536 -0.0170856 1.71905e-19)
(4.85368 -0.0149054 3.40161e-19)
(4.87096 -0.0128956 0)
(4.88722 -0.0110328 0)
(4.90251 -0.00930669 0)
(4.91688 -0.00770347 1.62903e-19)
(4.93041 -0.00622082 0)
(4.94311 -0.00484546 1.5939e-19)
(4.95503 -0.0035777 0)
(4.96622 -0.00241696 0)
(4.97671 -0.00133158 -3.0843e-19)
(4.98655 -0.000325571 0)
(4.99576 0.000601884 -1.50824e-19)
(5.00438 0.00145494 0)
(5.01245 0.00223691 -1.47482e-19)
(5.01999 0.0029549 0)
(5.02705 0.00361706 0)
(5.03365 0.00422729 0)
(5.0398 0.00478681 -4.22818e-19)
(5.04553 0.00529757 -1.39333e-19)
(5.05087 0.00576342 0)
(5.05585 0.00618932 0)
(5.06049 0.00657931 0)
(5.06481 0.0069352 0)
(5.06882 0.00725746 1.31465e-19)
(5.07253 0.00754721 -2.59848e-19)
(5.07597 0.00780749 -1.28395e-19)
(5.07916 0.00804243 2.5375e-19)
(5.08212 0.00825494 2.50733e-19)
(5.08485 0.00844583 1.23869e-19)
(5.08737 0.00861477 0)
(5.08968 0.00876245 2.41805e-19)
(5.09181 0.00889113 0)
(5.09376 0.00900378 -2.35956e-19)
(5.09556 0.009103 -1.16531e-19)
(5.0972 0.00918959 0)
(5.09869 0.00926314 2.27331e-19)
(5.10004 0.00932343 1.12248e-19)
(5.10126 0.00937097 0)
(5.10237 0.00940699 1.0944e-19)
(5.10336 0.00943334 -3.24153e-19)
(5.10424 0.00945175 0)
(5.10502 0.00946312 0)
(5.10571 0.00946776 0)
(5.10632 0.00946575 0)
(5.10683 0.00945714 -2.02485e-19)
(5.10726 0.0094422 -1.99816e-19)
(5.10762 0.00942144 0)
(5.1079 0.00939566 0)
(5.10812 0.00936597 0)
(5.10828 0.00933341 0)
(5.10837 0.0092985 0)
(5.1084 0.00926075 0)
(5.10838 0.00921914 -1.81616e-19)
(5.10829 0.0091735 -1.39317e-25)
(5.10815 0.00912496 0)
(5.10797 0.00907525 0)
(5.10774 0.00902513 -1.71582e-19)
(5.10745 0.00897414 0)
(5.10712 0.00892137 1.6666e-19)
(5.10674 0.00886615 1.64223e-19)
(5.10631 0.00880867 0)
(5.10583 0.00875039 0)
(5.10531 0.00869343 -1.57002e-19)
(5.10475 0.00863894 -3.09249e-19)
(5.10414 0.0085863 0)
(5.10348 0.00853463 0)
(5.10277 0.00848369 0)
(5.10201 0.00843402 -1.45261e-19)
(5.10119 0.00838694 1.42956e-19)
(5.10031 0.00834452 0)
(5.09937 0.00830862 2.76775e-19)
(5.09837 0.00828125 1.36124e-19)
(5.09729 0.00826485 -2.67748e-19)
(5.09613 0.00826163 0)
(5.09486 0.0082761 0)
(5.09349 0.00831134 -2.54407e-19)
(5.09197 0.00837328 -1.25007e-19)
(5.09031 0.00846916 0)
(5.08842 0.00861216 0)
(5.08637 0.00880372 0)
(5.08391 0.00909491 0)
(5.08125 0.00943061 -2.28437e-19)
(5.07795 0.00998807 0)
(5.07412 0.0106274 0)
(5.07006 0.0113377 0)
(5.06295 0.0135136 0)
(5.06015 0.0121664 0)
(5.04372 0.0217286 0)
(5.0468 0.00979216 -1.99418e-19)
(5.0139 0.040866 0)
(5.01774 0.00678415 0)
(4.97962 0.0699698 -3.75144e-19)
(4.94549 0.0247563 1.83683e-19)
(4.93558 0.11526 -1.80061e-19)
(4.82165 0.0962668 1.76197e-19)
(-0.0444953 0.602983 0)
(-0.135052 0.563441 -1.68156e-19)
(-0.217267 0.541679 0)
(-0.301266 0.528591 -8.29812e-20)
(-0.383391 0.511393 0)
(-0.463595 0.489463 0)
(-0.540933 0.462659 8.1025e-20)
(-0.614425 0.430869 0)
(-0.683207 0.394032 0)
(-0.746557 0.352194 0)
(-0.803266 0.305527 0)
(-0.852543 0.253893 0)
(-0.89334 0.197892 -3.11754e-19)
(-0.924695 0.137752 -1.54773e-19)
(-0.945635 0.0737405 1.538e-19)
(-0.955747 0.00700341 0)
(-0.953553 -0.062417 0)
(-0.937797 -0.133393 0)
(-0.90908 -0.204991 0)
(-0.866895 -0.276157 0)
(-0.811303 -0.345791 -1.48445e-19)
(-0.74212 -0.41307 -1.47618e-19)
(-0.660274 -0.47674 1.46801e-19)
(-0.56625 -0.535923 -1.45991e-19)
(-0.461145 -0.590028 0)
(-0.34595 -0.638511 0)
(-0.221361 -0.680957 -1.43596e-19)
(-0.0895166 -0.716816 0)
(0.0493001 -0.746527 0)
(0.19351 -0.769706 -1.41088e-19)
(0.341446 -0.786731 -1.40242e-19)
(0.492465 -0.797876 -1.3938e-19)
(0.645586 -0.803517 0)
(0.799822 -0.804102 0)
(0.954238 -0.800104 1.36699e-19)
(1.10807 -0.791997 0)
(1.26073 -0.780254 0)
(1.41167 -0.765359 -1.33848e-19)
(1.56033 -0.747788 1.32931e-19)
(1.70623 -0.72798 -1.31944e-19)
(1.84908 -0.706328 0)
(1.98863 -0.6832 0)
(2.12464 -0.658948 -2.57776e-19)
(2.25689 -0.633891 0)
(2.38525 -0.608302 -2.53632e-19)
(2.50966 -0.582415 -3.77288e-19)
(2.63006 -0.556443 3.74126e-19)
(2.7464 -0.530578 -2.47305e-19)
(2.85867 -0.504979 0)
(2.96691 -0.479779 0)
(3.07116 -0.455089 -2.40896e-19)
(3.17144 -0.431004 -1.19369e-19)
(3.26781 -0.407597 0)
(3.36036 -0.384926 0)
(3.44919 -0.363038 -1.1615e-19)
(3.53436 -0.341969 -2.3016e-19)
(3.61594 -0.321738 0)
(3.69404 -0.302355 2.25879e-19)
(3.76879 -0.283823 -2.23747e-19)
(3.84028 -0.266145 2.21621e-19)
(3.90858 -0.249316 0)
(3.97379 -0.233316 0)
(4.03604 -0.218127 0)
(4.09544 -0.203733 0)
(4.15206 -0.190114 0)
(4.20601 -0.177242 2.09044e-19)
(4.25738 -0.165088 0)
(4.30629 -0.153625 0)
(4.35281 -0.142829 0)
(4.39705 -0.132668 4.0172e-19)
(4.43909 -0.123111 1.98846e-19)
(4.47903 -0.114127 1.96841e-19)
(4.51695 -0.10569 -3.89694e-19)
(4.55293 -0.0977762 1.92865e-19)
(4.58706 -0.090356 -1.90902e-19)
(4.61941 -0.0834028 0)
(4.65008 -0.0768935 1.87006e-19)
(4.67911 -0.0708066 0)
(4.7066 -0.0651135 0)
(4.73262 -0.0597925 0)
(4.75724 -0.0548129 3.58735e-19)
(4.7805 -0.0501692 -1.77489e-19)
(4.80248 -0.0458349 -1.75622e-19)
(4.82323 -0.0418 -3.47547e-19)
(4.84283 -0.0380378 -5.15809e-19)
(4.86134 -0.0345141 -1.70113e-19)
(4.87882 -0.0312229 0)
(4.89531 -0.0281545 -3.32995e-19)
(4.91085 -0.0252951 0)
(4.92549 -0.02263 -4.88809e-19)
(4.93929 -0.0201452 0)