/*--------------------------------*- C++ -*----------------------------------*\
| =========                 |                                                 |
| \\      /  F ield         | OpenFOAM: The Open Source CFD Toolbox           |
|  \\    /   O peration     | Version:  2.1.x                                 |
|   \\  /    A nd           | Web:      www.OpenFOAM.org                      |
|    \\/     M anipulation  |                                                 |
\*---------------------------------------------------------------------------*/
FoamFile
{
    version     2.0;
    format      ascii;
    class       volVectorField;
    location    "0.004";
    object      U_0;
}
// * * * * * * * * * * * * * * * * * * * * * * * * * * * * * * * * * * * * * //

dimensions      [0 1 -1 0 0 0 0];

internalField   nonuniform List<vector> 
12225
(
(7.16369 0.446721 0)
(4.42472 0.197542 0)
(3.05834 0.02806 0)
(2.44802 -0.0121408 0)
(2.14449 -0.00942937 0)
(2.03356 -0.00564499 0)
(2.02796 -0.014655 0)
(2.02793 -0.00659504 0)
(1.96929 0.00972926 0)
(1.90193 0.00437182 0)
(1.98492 -0.0161418 0)
(2.08479 -0.017671 0)
(2.16319 -0.00303891 0)
(2.12882 0.00649318 0)
(2.17535 -0.00145398 0)
(2.26637 -0.0348619 0)
(2.5376 -0.0225062 0)
(2.62815 -0.0482433 0)
(9.63634 0.974198 0)
(8.88848 0.815159 0)
(7.82104 0.409912 0)
(6.91773 0.20222 0)
(6.18958 0.107512 0)
(5.85826 0.0400928 0)
(5.74019 -0.00854957 0)
(5.54818 0.0106631 0)
(5.41173 0.0501993 0)
(5.27416 -0.00171621 0)
(5.40309 -0.0596051 0)
(5.4962 -0.0585998 0)
(5.57394 -0.00906622 0)
(5.50173 0.00836897 0)
(5.60694 -0.0441642 0)
(5.79898 -0.131307 0)
(6.03967 -0.161938 0)
(6.28651 -0.195892 0)
(10.1277 0.858841 0)
(10.6248 0.915319 0)
(10.4214 0.559701 0)
(9.9822 0.379817 0)
(9.3226 0.28401 0)
(8.94941 0.140648 0)
(8.87663 0.0556999 0)
(8.60834 0.0847007 0)
(8.41071 0.123006 0)
(8.21236 0.01322 0)
(8.21565 -0.107082 0)
(8.32822 -0.0884987 0)
(8.43062 0.0100222 0)
(8.37098 0.0252441 0)
(8.46765 -0.10914 0)
(8.55651 -0.252023 0)
(8.72946 -0.280417 0)
(8.85583 -0.327894 0)
(10.0379 0.63798 0)
(10.7204 0.805829 0)
(10.9251 0.562366 0)
(11.1504 0.424788 0)
(10.9006 0.367862 0)
(10.5597 0.156116 0)
(10.5693 0.0534248 0)
(10.5856 0.173946 0)
(10.6175 0.256328 0)
(10.4707 0.0778761 0)
(10.2587 -0.141525 0)
(10.3151 -0.183419 0)
(10.4538 -0.0226508 0)
(10.5417 0.040815 0)
(10.7748 -0.0949898 0)
(10.781 -0.251891 0)
(10.7686 -0.31532 0)
(10.7086 -0.391618 0)
(9.80989 0.542206 0)
(10.3371 0.750661 0)
(10.901 0.471903 0)
(11.4772 0.362001 0)
(11.4163 0.475667 0)
(11.1114 0.269732 0)
(11.038 -0.0117599 0)
(11.2163 0.0317836 0)
(11.4462 0.186146 0)
(11.3908 0.157136 0)
(11.2036 -0.0353912 0)
(11.1904 -0.17284 0)
(11.2361 -0.0764637 0)
(11.4535 -0.0920289 0)
(11.6803 -0.233855 0)
(11.6353 -0.271623 0)
(11.58 -0.278624 0)
(11.4687 -0.297897 0)
(9.9621 0.427479 0)
(10.3947 0.562197 0)
(10.7733 0.330892 0)
(10.9951 0.27885 0)
(11.0908 0.436202 0)
(11.157 0.244132 0)
(11.0403 -0.0333433 0)
(10.9795 0.0617565 0)
(11.1502 0.232279 0)
(11.3357 0.139877 0)
(11.3463 -0.100409 0)
(11.2834 -0.223591 0)
(11.3273 -0.170524 0)
(11.4129 -0.13821 0)
(11.4346 -0.183994 0)
(11.5742 -0.260372 0)
(11.6079 -0.267104 0)
(11.446 -0.246619 0)
(10.0043 0.256869 0)
(10.3538 0.462477 0)
(10.6039 0.315394 0)
(10.6595 0.274339 0)
(10.7823 0.408151 0)
(10.935 0.288527 0)
(10.8742 0.00781801 0)
(10.8051 -0.0396449 0)
(10.9768 0.0501465 0)
(11.208 0.0696107 0)
(11.2619 0.00703751 0)
(11.213 -0.115698 0)
(11.1653 -0.15398 0)
(11.1831 -0.164553 0)
(11.299 -0.345557 0)
(11.2897 -0.416028 0)
(11.1528 -0.21721 0)
(11.2377 -0.235427 0)
(9.95929 0.214773 0)
(10.3367 0.368445 0)
(10.5464 0.286173 0)
(10.5063 0.278916 0)
(10.5714 0.330213 0)
(10.751 0.186515 0)
(10.749 -0.00566526 0)
(10.6592 0.0070178 0)
(10.7188 0.0503253 0)
(10.8634 -0.0165589 0)
(10.9948 -0.120702 0)
(11.1181 -0.167812 0)
(11.1833 -0.186613 0)
(11.1995 -0.21136 0)
(11.1947 -0.212731 0)
(11.1839 -0.1991 0)
(11.297 -0.289587 0)
(11.4869 -0.423093 0)
(10.0399 0.189647 0)
(10.2125 0.28039 0)
(10.4105 0.254677 0)
(10.4914 0.300763 0)
(10.5835 0.349744 0)
(10.6553 0.223358 0)
(10.5706 0.0181909 0)
(10.5263 -0.0509334 0)
(10.6228 -0.0237768 0)
(10.7284 -0.049007 0)
(10.7312 -0.10403 0)
(10.7311 -0.164157 0)
(10.7848 -0.211915 0)
(10.8337 -0.229003 0)
(10.8842 -0.299806 0)
(11.0025 -0.433147 0)
(11.0842 -0.41842 0)
(11.0961 -0.235451 0)
(10.101 0.139728 0)
(10.2583 0.261984 0)
(10.3092 0.244236 0)
(10.3116 0.270995 0)
(10.4394 0.288783 0)
(10.6044 0.172444 0)
(10.6022 0.0317972 0)
(10.5359 -0.0217067 0)
(10.502 -0.0365276 0)
(10.5422 -0.085144 0)
(10.6179 -0.153402 0)
(10.7046 -0.201294 0)
(10.7526 -0.258733 0)
(10.761 -0.276215 0)
(10.7772 -0.259552 0)
(10.8258 -0.321746 0)
(10.849 -0.421537 0)
(10.9988 -0.496603 0)
(10.0925 0.0836315 0)
(10.2243 0.17743 0)
(10.3628 0.192775 0)
(10.5045 0.226355 0)
(10.6637 0.25642 0)
(10.8048 0.184969 0)
(10.8357 0.052385 0)
(10.8348 -0.0240947 0)
(10.8414 -0.0552857 0)
(10.8344 -0.104488 0)
(10.7763 -0.179478 0)
(10.7218 -0.212884 0)
(10.6909 -0.245564 0)
(10.6605 -0.306166 0)
(10.6508 -0.347987 0)
(10.7331 -0.39958 0)
(10.827 -0.548756 0)
(10.8219 -0.374953 0)
(10.2065 0.076328 0)
(10.2386 0.114624 0)
(10.233 0.154599 0)
(10.2646 0.172471 0)
(10.3733 0.158098 0)
(10.4793 0.0953046 0)
(10.5048 0.0164621 0)
(10.5259 -0.0216456 0)
(10.5408 -0.0500018 0)
(10.5398 -0.0678879 0)
(10.5371 -0.0860166 0)
(10.5355 -0.138991 0)
(10.5513 -0.218422 0)
(10.5666 -0.253705 0)
(10.5634 -0.26816 0)
(10.6471 -0.461658 0)
(10.6912 -0.643272 0)
(10.568 -0.302555 0)
(9.98812 0.00773883 0)
(10.1055 0.153483 0)
(10.1216 0.148873 0)
(10.1361 0.15016 0)
(10.1977 0.163643 0)
(10.2634 0.121482 0)
(10.3211 0.0358248 0)
(10.3924 -0.0384146 0)
(10.4461 -0.106992 0)
(10.4762 -0.149614 0)
(10.4958 -0.186923 0)
(10.522 -0.234733 0)
(10.5588 -0.279776 0)
(10.593 -0.364861 0)
(10.6474 -0.440069 0)
(10.7143 -0.395568 0)
(10.6328 -0.37179 0)
(10.6044 -0.750302 0)
(9.781 -0.0421904 0)
(9.94441 0.00544952 0)
(10.0318 0.0878594 0)
(10.1223 0.121834 0)
(10.261 0.0817023 0)
(10.3848 -0.00297425 0)
(10.4618 -0.0731973 0)
(10.4963 -0.0972175 0)
(10.4939 -0.107822 0)
(10.4675 -0.124992 0)
(10.4217 -0.147687 0)
(10.3767 -0.202034 0)
(10.3448 -0.255244 0)
(10.3372 -0.325033 0)
(10.3316 -0.390665 0)
(10.3871 -0.430778 0)
(10.497 -0.608402 0)
(10.4168 -0.91618 0)
(10.0268 -0.017606 0)
(10.0316 -0.0243683 0)
(10.0934 -0.0146891 0)
(10.1944 -0.0206843 0)
(10.2672 -0.0199408 0)
(10.2917 -0.026772 0)
(10.3027 -0.0377904 0)
(10.3122 -0.0441028 0)
(10.327 -0.0627505 0)
(10.3549 -0.0973801 0)
(10.3691 -0.128579 0)
(10.3639 -0.186022 0)
(10.3383 -0.268876 0)
(10.3326 -0.37546 0)
(10.3254 -0.478414 0)
(10.3513 -0.517027 0)
(10.4025 -0.376661 0)
(10.3439 -0.565857 0)
(9.90735 0.146753 0)
(9.96664 0.00532967 0)
(9.97494 -0.0513206 0)
(9.95557 -0.0390695 0)
(9.97149 -0.0215493 0)
(10.0373 -0.038642 0)
(10.1285 -0.08446 0)
(10.215 -0.130568 0)
(10.2897 -0.161962 0)
(10.3639 -0.177787 0)
(10.398 -0.178302 0)
(10.3751 -0.188244 0)
(10.3058 -0.220777 0)
(10.2641 -0.274692 0)
(10.2343 -0.368859 0)
(10.1931 -0.544584 0)
(10.1583 -0.671135 0)
(10.2038 -0.282228 0)
(9.85373 0.171941 0)
(9.87899 -0.0119749 0)
(9.89393 -0.0640067 0)
(9.92828 -0.0666999 0)
(10.0107 -0.113326 0)
(10.1192 -0.198653 0)
(10.2141 -0.254085 0)
(10.2584 -0.259006 0)
(10.2803 -0.223499 0)
(10.3139 -0.180345 0)
(10.349 -0.146277 0)
(10.3551 -0.133964 0)
(10.3391 -0.156121 0)
(10.3275 -0.218799 0)
(10.3206 -0.294261 0)
(10.2983 -0.338569 0)
(10.2032 -0.459657 0)
(10.084 -0.755946 0)
(10.2206 -0.0123485 0)
(10.1512 -0.0558645 0)
(10.1433 -0.114394 0)
(10.0725 -0.189478 0)
(10.0187 -0.237493 0)
(10.0274 -0.268782 0)
(10.074 -0.278877 0)
(10.0954 -0.275078 0)
(10.1059 -0.261616 0)
(10.1545 -0.249972 0)
(10.2433 -0.237866 0)
(10.3153 -0.22747 0)
(10.3491 -0.219216 0)
(10.3785 -0.222462 0)
(10.4217 -0.237235 0)
(10.4504 -0.277588 0)
(10.4477 -0.300273 0)
(10.3581 -0.274693 0)
(10.2246 -0.0757447 0)
(10.2158 0.0734787 0)
(10.2313 0.0712621 0)
(10.209 -0.015336 0)
(10.1776 -0.107361 0)
(10.1659 -0.196848 0)
(10.1943 -0.267443 0)
(10.1942 -0.314148 0)
(10.1492 -0.334383 0)
(10.1253 -0.342565 0)
(10.1322 -0.350784 0)
(10.1447 -0.356636 0)
(10.1418 -0.352139 0)
(10.1667 -0.34155 0)
(10.2244 -0.326188 0)
(10.2837 -0.322031 0)
(10.3017 -0.336444 0)
(10.286 -0.381581 0)
(9.97654 -0.247001 0)
(10.042 -0.0494307 0)
(10.1665 -0.0113742 0)
(10.2914 -0.128607 0)
(10.3579 -0.233889 0)
(10.375 -0.274097 0)
(10.3875 -0.271183 0)
(10.3807 -0.25431 0)
(10.3397 -0.238301 0)
(10.306 -0.233102 0)
(10.2865 -0.25271 0)
(10.2562 -0.2901 0)
(10.2014 -0.325249 0)
(10.1595 -0.354814 0)
(10.1544 -0.369247 0)
(10.163 -0.377611 0)
(10.145 -0.378007 0)
(10.0879 -0.37877 0)
(10.0993 -0.169278 0)
(10.0704 -0.110976 0)
(10.0885 -0.140776 0)
(10.1459 -0.204072 0)
(10.2223 -0.231826 0)
(10.2772 -0.224119 0)
(10.3277 -0.211927 0)
(10.3665 -0.218503 0)
(10.3846 -0.233279 0)
(10.3938 -0.251023 0)
(10.4047 -0.267771 0)
(10.3919 -0.280615 0)
(10.3561 -0.283368 0)
(10.3283 -0.281026 0)
(10.3308 -0.280332 0)
(10.3384 -0.28808 0)
(10.3189 -0.303988 0)
(10.2676 -0.324916 0)
(9.9102 -0.0476773 0)
(9.96662 -0.0401774 0)
(10.0769 -0.137918 0)
(10.177 -0.245841 0)
(10.268 -0.327002 0)
(10.3352 -0.3615 0)
(10.3874 -0.343449 0)
(10.4088 -0.309237 0)
(10.4067 -0.275382 0)
(10.3925 -0.254679 0)
(10.3845 -0.249449 0)
(10.3727 -0.255084 0)
(10.3528 -0.263497 0)
(10.3474 -0.272317 0)
(10.3652 -0.284069 0)
(10.3814 -0.298455 0)
(10.3687 -0.312552 0)
(10.3181 -0.322092 0)
(10.1185 -0.114502 0)
(10.2163 -0.195906 0)
(10.3472 -0.32885 0)
(10.466 -0.39855 0)
(10.5379 -0.367992 0)
(10.5549 -0.297214 0)
(10.5357 -0.235683 0)
(10.4904 -0.217185 0)
(10.4454 -0.229059 0)
(10.4268 -0.25086 0)
(10.4453 -0.270404 0)
(10.4808 -0.285149 0)
(10.5078 -0.291009 0)
(10.5351 -0.291142 0)
(10.5599 -0.292725 0)
(10.5675 -0.294287 0)
(10.5369 -0.29857 0)
(10.4715 -0.296642 0)
(10.025 -0.143794 0)
(10.1649 -0.264207 0)
(10.2668 -0.303072 0)
(10.3062 -0.334598 0)
(10.3441 -0.340834 0)
(10.4234 -0.306484 0)
(10.5354 -0.256141 0)
(10.6346 -0.234728 0)
(10.6955 -0.245513 0)
(10.7258 -0.275164 0)
(10.7401 -0.304378 0)
(10.7396 -0.31878 0)
(10.7193 -0.310247 0)
(10.6954 -0.284836 0)
(10.6768 -0.260141 0)
(10.6547 -0.245028 0)
(10.6135 -0.244691 0)
(10.5569 -0.246376 0)
(10.0231 -0.249763 0)
(10.1228 -0.398541 0)
(10.3282 -0.431683 0)
(10.5196 -0.43453 0)
(10.6329 -0.417487 0)
(10.6839 -0.387669 0)
(10.7177 -0.35441 0)
(10.7455 -0.330531 0)
(10.7617 -0.314128 0)
(10.761 -0.305243 0)
(10.7491 -0.296703 0)
(10.725 -0.287794 0)
(10.6921 -0.273078 0)
(10.6677 -0.254707 0)
(10.6634 -0.245967 0)
(10.6681 -0.244886 0)
(10.6663 -0.252573 0)
(10.6541 -0.250376 0)
(9.9924 -0.25699 0)
(10.2127 -0.44351 0)
(10.5111 -0.482594 0)
(10.7414 -0.45764 0)
(10.8591 -0.404722 0)
(10.8977 -0.357768 0)
(10.9102 -0.32569 0)
(10.919 -0.311675 0)
(10.9212 -0.304475 0)
(10.9135 -0.296242 0)
(10.8997 -0.280466 0)
(10.8753 -0.262605 0)
(10.836 -0.244593 0)
(10.7922 -0.229093 0)
(10.7478 -0.22819 0)
(10.7063 -0.236987 0)
(10.6572 -0.251827 0)
(10.6074 -0.253491 0)
(9.9243 -0.456841 0)
(10.348 -0.670559 0)
(10.7335 -0.63303 0)
(10.9739 -0.519945 0)
(11.0551 -0.439328 0)
(11.0475 -0.396748 0)
(11.0203 -0.370692 0)
(10.9637 -0.348419 0)
(10.8747 -0.325632 0)
(10.7582 -0.300553 0)
(10.6515 -0.273255 0)
(10.5604 -0.248421 0)
(10.4914 -0.224656 0)
(10.4364 -0.204319 0)
(10.3898 -0.199767 0)
(10.3386 -0.206626 0)
(10.2767 -0.218692 0)
(10.1978 -0.216645 0)
(9.86416 -0.525636 0)
(10.3707 -0.796786 0)
(10.6239 -0.71077 0)
(10.6551 -0.548513 0)
(10.5163 -0.438242 0)
(10.2825 -0.371211 0)
(10.0281 -0.320012 0)
(9.7659 -0.270087 0)
(9.51451 -0.225029 0)
(9.27656 -0.191556 0)
(9.07729 -0.176134 0)
(8.8989 -0.17026 0)
(8.74361 -0.163779 0)
(8.59383 -0.151998 0)
(8.45467 -0.147182 0)
(8.31398 -0.146532 0)
(8.18309 -0.149478 0)
(8.04855 -0.138824 0)
(9.92792 -0.752754 0)
(9.89881 -0.9741 0)
(9.35476 -0.754742 0)
(8.62924 -0.521499 0)
(7.92108 -0.34621 0)
(7.32078 -0.228112 0)
(6.84347 -0.155855 0)
(6.46617 -0.11048 0)
(6.1698 -0.081578 0)
(5.93059 -0.0660425 0)
(5.73265 -0.0598401 0)
(5.55764 -0.0538609 0)
(5.40301 -0.0477616 0)
(5.26814 -0.0415142 0)
(5.14791 -0.0446063 0)
(5.03481 -0.0485394 0)
(4.92795 -0.0588075 0)
(4.81019 -0.0549987 0)
(8.38404 -0.413618 0)
(5.99233 -0.36333 0)
(4.28796 -0.130605 0)
(3.27348 -0.0119 0)
(2.71112 0.0283621 0)
(2.39578 0.033756 0)
(2.20539 0.0264658 0)
(2.07699 0.0190524 0)
(1.98523 0.0137981 0)
(1.91462 0.009717 0)
(1.85316 0.00556409 0)
(1.79465 0.00131901 0)
(1.73818 -0.00217579 0)
(1.68881 -0.0035068 0)
(1.63654 -0.00498616 0)
(1.58942 -0.00544992 0)
(1.52286 -0.0151077 0)
(1.45716 -0.00367344 0)
(-0.0412138 0.0827012 0)
(-0.114649 0.0769107 0)
(-0.182705 0.0742997 0)
(-0.251851 0.0724477 0)
(-0.318699 0.0700523 0)
(-0.383913 0.0670583 0)
(-0.446061 0.0634907 2.66468e-20)
(-0.504768 0.0592267 -2.64696e-20)
(-0.559289 0.0543352 0)
(-0.609038 0.0488887 -2.61289e-20)
(-0.653156 0.042939 0)
(-0.69051 0.0363888 0)
(-0.721083 0.0292658 0)
(-0.744082 0.0217344 2.55059e-20)
(-0.758979 0.0137927 0)
(-0.764778 0.00557379 0)
(-0.761155 -0.00300271 -2.50919e-20)
(-0.747809 -0.0115276 0)
(-0.724295 -0.0202334 0)
(-0.690821 -0.0287035 0)
(-0.647379 -0.0370114 2.46044e-20)
(-0.593867 -0.0449149 0)
(-0.530253 -0.0521984 2.43799e-20)
(-0.457627 -0.0591347 0)
(-0.37627 -0.065401 0)
(-0.286853 -0.0707822 2.40533e-20)
(-0.189866 -0.0752992 0)
(-0.0860798 -0.0791239 -2.38343e-20)
(0.0232259 -0.0819552 0)
(0.137246 -0.0839726 2.36085e-20)
(0.254992 -0.085142 0)
(0.37567 -0.0855032 0)
(0.498406 -0.0850919 0)
(0.622318 -0.0839535 0)
(0.746532 -0.0821576 0)
(0.870261 -0.0797864 -2.28541e-20)
(0.992824 -0.0769124 0)
(1.11358 -0.0735974 4.5144e-20)
(1.23191 -0.06991 0)
(1.34725 -0.0659316 -4.45495e-20)
(1.4592 -0.0617402 0)
(1.56742 -0.057397 0)
(1.67155 -0.0529536 4.36064e-20)
(1.77131 -0.0484653 0)
(1.86652 -0.0439889 4.29486e-20)
(1.95708 -0.0395715 -4.26124e-20)
(2.04289 -0.0352475 0)
(2.12387 -0.0310473 -4.19279e-20)
(2.20001 -0.0270004 -4.15806e-20)
(2.27138 -0.0231306 0)
(2.33805 -0.0194541 0)
(2.40008 -0.0159844 0)
(2.45757 -0.0127329 0)
(2.51068 -0.00970381 0)
(2.55959 -0.00689553 3.94535e-20)
(2.60442 -0.00430741 0)
(2.64532 -0.00194087 -3.87369e-20)
(2.68251 0.000208549 0)
(2.71618 0.00215336 0)
(2.74651 0.00390496 3.76634e-20)
(2.77365 0.0054685 0)
(2.7978 0.00685049 -3.69512e-20)
(2.81916 0.00806546 0)
(2.83791 0.00912977 0)
(2.85421 0.010053 0)
(2.8682 0.010842 3.55414e-20)
(2.88007 0.0115094 0)
(2.88998 0.0120716 0)
(2.89806 0.0125382 3.4501e-20)
(2.90445 0.0129129 0)
(2.90927 0.0131984 3.38167e-20)
(2.91269 0.0134029 0)
(2.9148 0.0135013 0)
(2.91568 0.0135 0)
(2.91542 0.0134321 -3.24728e-20)
(2.91415 0.0133256 0)
(2.91196 0.0131969 0)
(2.90892 0.0130503 -3.14875e-20)
(2.9051 0.0128868 -3.11635e-20)
(2.90058 0.0127075 0)
(2.89542 0.0125178 -3.05222e-20)
(2.88967 0.0123192 0)
(2.88338 0.0121166 -5.97796e-20)
(2.87659 0.0119032 0)
(2.86935 0.0117033 -5.85327e-20)
(2.86168 0.0115245 0)
(2.85363 0.0113498 5.73036e-20)
(2.84522 0.0111694 0)
(2.83649 0.010982 0)
(2.82748 0.0107929 0)
(2.81822 0.0106077 -5.4898e-20)
(2.80872 0.0104278 0)
(2.79899 0.0102497 5.37212e-20)
(2.78906 0.0100704 0)
(2.77895 0.00989196 -5.25613e-20)
(2.76869 0.00971791 -5.19876e-20)
(2.75827 0.00954934 -5.14181e-20)
(2.74771 0.00938422 0)
(2.73701 0.00922074 0)
(2.72621 0.00906007 0)
(2.71531 0.00890484 0)
(2.70431 0.00875598 0)
(2.69323 0.00861162 0)
(2.68206 0.00846895 0)
(2.67082 0.00832715 0)
(2.65952 0.00818833 4.64733e-20)
(2.64817 0.00805502 4.59433e-20)
(2.63676 0.00792706 0)
(2.6253 0.00780172 0)
(2.61378 0.00767649 0)
(2.60223 0.00755148 4.38607e-20)
(2.59065 0.00742903 0)
(2.57904 0.00731107 0)
(2.56741 0.00719709 0)
(2.55574 0.00708487 0)
(2.54405 0.00697279 -4.13386e-20)
(2.53234 0.00686097 0)
(2.52062 0.00675087 0)
(2.50888 0.00664376 3.98672e-20)
(2.49714 0.00653964 -3.93834e-20)
(2.48538 0.00643752 0)
(2.47362 0.00633637 -3.84259e-20)
(2.46184 0.00623568 0)
(2.45007 0.0061354 3.74814e-20)
(2.43829 0.00603595 0)
(2.42652 0.00593798 0)
(2.41475 0.00584209 0)
(2.40298 0.0057485 0)
(2.39122 0.00565673 0)
(2.37945 0.00556577 -6.94478e-20)
(2.36769 0.00547464 -6.85501e-20)
(2.35594 0.00538313 0)
(2.3442 0.00529207 0)
(2.33247 0.00520265 0)
(2.32076 0.00511557 6.50185e-20)
(2.30905 0.00503039 0)
(2.29736 0.00494584 0)
(2.28567 0.00486068 0)
(2.274 0.00477477 6.15787e-20)
(2.26235 0.00468923 -6.07327e-20)
(2.25071 0.00460532 0)
(2.23909 0.00452333 0)
(2.22749 0.00444254 -5.82273e-20)
(2.21591 0.00436198 -5.74027e-20)
(2.20434 0.00428122 0)
(2.19279 0.00420044 0)
(2.18127 0.00412026 5.49605e-20)
(2.16977 0.0040415 -5.41566e-20)
(2.15829 0.00396448 0)
(2.14683 0.00388872 0)
(2.13538 0.00381351 -5.17751e-20)
(2.12396 0.00373849 0)
(2.11255 0.00366403 0)
(2.10116 0.00359064 -4.94373e-20)
(2.08979 0.00351845 0)
(2.07842 0.00344802 -4.79027e-20)
(2.06707 0.00337983 0)
(2.05572 0.00331403 0)
(2.04436 0.00325083 0)
(2.03298 0.00319053 4.48889e-20)
(2.02158 0.00313309 0)
(2.01012 0.0030797 0)
(1.9986 0.00303191 0)
(1.98698 0.00298862 0)
(1.97522 0.002961 0)
(1.96331 0.00292619 0)
(1.95104 0.00295177 3.97902e-20)
(1.93873 0.00288869 3.90807e-20)
(1.92524 0.00308636 0)
(1.9128 0.00283974 0)
(1.89595 0.00353313 0)
(1.88518 0.00279019 -3.62965e-20)
(1.85953 0.00439004 0)
(1.8544 0.00320133 6.98874e-20)
(1.81175 0.00544328 -6.85476e-20)
(1.81095 0.00539943 -6.72516e-20)
(1.74999 0.00759914 6.59617e-20)
(1.72465 0.00853253 -6.47237e-20)
(1.67221 0.0248203 6.35178e-20)
(1.48261 -0.000442487 0)
(-0.0418394 0.247581 0)
(-0.117039 0.227421 0)
(-0.186247 0.218737 -5.47474e-20)
(-0.256286 0.213007 0)
(-0.324317 0.205633 5.39831e-20)
(-0.390424 0.196372 5.36127e-20)
(-0.453561 0.185154 2.6601e-20)
(-0.513251 0.171851 2.64728e-20)
(-0.568321 0.156615 0)
(-0.618228 0.139306 2.6133e-20)
(-0.6624 0.120236 0)
(-0.699678 0.0993011 0)
(-0.729558 0.0765561 -5.12733e-20)
(-0.751278 0.0523552 -2.5512e-20)
(-0.764325 0.0267522 5.06953e-20)
(-0.767779 5.47903e-05 5.04219e-20)
(-0.760802 -0.027705 2.50995e-20)
(-0.743354 -0.0557594 0)
(-0.714938 -0.0841748 0)
(-0.675458 -0.112304 0)
(-0.625198 -0.139961 2.45874e-20)
(-0.563485 -0.166465 0)
(-0.491137 -0.191684 -7.31515e-20)
(-0.409088 -0.215542 0)
(-0.31669 -0.237293 0)
(-0.215134 -0.256812 -2.40652e-20)
(-0.105551 -0.273896 0)
(0.0118796 -0.288671 2.38475e-20)
(0.135919 -0.30082 4.7472e-20)
(0.265396 -0.310458 -2.36231e-20)
(0.399637 -0.317576 0)
(0.537754 -0.322272 0)
(0.678904 -0.32467 0)
(0.822235 -0.324907 4.6282e-20)
(0.966898 -0.323145 4.60218e-20)
(1.11212 -0.319569 2.28737e-20)
(1.25724 -0.314372 0)
(1.40164 -0.307745 -4.51867e-20)
(1.54473 -0.299876 0)
(1.68597 -0.290956 4.45957e-20)
(1.82493 -0.281164 0)
(1.96126 -0.270664 0)
(2.09461 -0.259611 -4.36577e-20)
(2.22466 -0.248156 0)
(2.35119 -0.236434 -1.29016e-19)
(2.47404 -0.224562 4.26681e-20)
(2.59307 -0.212638 0)
(2.70812 -0.200758 4.19862e-20)
(2.81913 -0.189011 4.164e-20)
(2.92606 -0.177471 0)
(3.02892 -0.166191 0)
(3.12766 -0.155216 0)
(3.22229 -0.144592 0)
(3.31288 -0.134357 0)
(3.3995 -0.124534 -3.95175e-20)
(3.48219 -0.115139 -7.83187e-20)
(3.56102 -0.106182 3.88017e-20)
(3.63608 -0.0976735 0)
(3.70748 -0.0896176 -7.617e-20)
(3.77534 -0.08201 3.77266e-20)
(3.83972 -0.0748442 0)
(3.90074 -0.0681122 3.70165e-20)
(3.95853 -0.0618031 0)
(4.01321 -0.0559033 0)
(4.06489 -0.050398 7.19103e-20)
(4.11367 -0.0452725 -3.5606e-20)
(4.15968 -0.0405085 7.05115e-20)
(4.20304 -0.0360877 -6.98171e-20)
(4.24386 -0.0319922 -3.45645e-20)
(4.28223 -0.0282065 0)
(4.31827 -0.0247233 -3.38794e-20)
(4.3521 -0.0215157 0)
(4.3838 -0.018575 0)
(4.41348 -0.0158901 0)
(4.44125 -0.0134353 -3.25312e-20)
(4.4672 -0.011187 0)
(4.49142 -0.00912568 -6.37441e-20)
(4.51399 -0.00723574 9.46366e-20)
(4.53498 -0.00550715 3.12215e-20)
(4.55449 -0.00392508 0)
(4.57259 -0.00248164 3.05789e-20)
(4.58936 -0.00115666 0)
(4.60488 4.58753e-05 5.98905e-20)
(4.6192 0.00114072 0)
(4.6324 0.0021291 5.8641e-20)
(4.64453 0.00300814 -1.16044e-19)
(4.65562 0.0037991 -5.74094e-20)
(4.66574 0.00451826 0)
(4.67494 0.00517088 0)
(4.68329 0.00575718 0)
(4.69084 0.00629024 5.4999e-20)
(4.69763 0.00677624 0)
(4.70368 0.00721246 -5.38198e-20)
(4.70905 0.00760581 0)
(4.71378 0.00796453 1.57971e-19)
(4.71789 0.00828523 5.20828e-20)
(4.72143 0.0085702 5.15121e-20)
(4.72442 0.00882341 0)
(4.72689 0.00904627 0)
(4.72888 0.00924188 0)
(4.7304 0.00941525 0)
(4.7315 0.0095694 0)
(4.73217 0.00970469 9.63467e-20)
(4.73246 0.00982045 9.52618e-20)
(4.73237 0.00991719 0)
(4.73193 0.00999786 -4.65578e-20)
(4.73116 0.0100663 -4.60269e-20)
(4.73008 0.0101243 0)
(4.7287 0.0101707 -8.9952e-20)
(4.72703 0.010204 0)
(4.72509 0.0102244 4.394e-20)
(4.7229 0.010235 0)
(4.72047 0.0102389 0)
(4.71781 0.0102372 -8.48274e-20)
(4.71492 0.0102285 0)
(4.71182 0.0102115 4.14138e-20)
(4.70852 0.0101865 0)
(4.70502 0.0101554 0)
(4.70135 0.0101202 3.99397e-20)
(4.6975 0.0100821 3.94552e-20)
(4.69348 0.0100404 0)
(4.68929 0.00999452 -3.8496e-20)
(4.68495 0.00994389 0)
(4.68045 0.00988863 3.755e-20)
(4.67581 0.00982956 7.41636e-20)
(4.67103 0.00976787 0)
(4.66611 0.0097045 0)
(4.66106 0.00964006 0)
(4.65588 0.00957463 0)
(4.65058 0.00950776 6.95755e-20)
(4.64515 0.00943876 2.06029e-19)
(4.6396 0.00936715 0)
(4.63394 0.00929323 0)
(4.62816 0.00921809 0)
(4.62227 0.009143 -6.51389e-20)
(4.61627 0.00906859 0)
(4.61015 0.00899426 0)
(4.60393 0.00891861 1.25093e-19)
(4.5976 0.00884064 6.16938e-20)
(4.59116 0.00876082 6.0846e-20)
(4.58462 0.00868074 0)
(4.57798 0.00860153 0)
(4.57123 0.00852317 5.83364e-20)
(4.56438 0.00844478 -5.75111e-20)
(4.55743 0.00836546 0)
(4.55036 0.00828502 0)
(4.5432 0.00820415 -5.50643e-20)
(4.53594 0.00812423 1.62778e-19)
(4.52857 0.00804636 0)
(4.5211 0.00797044 0)
(4.51352 0.0078959 5.18737e-20)
(4.50582 0.00782211 0)
(4.49802 0.00774899 1.00616e-19)
(4.4901 0.00767773 -4.95327e-20)
(4.48206 0.00760938 0)
(4.4739 0.00754479 4.7995e-20)
(4.46561 0.00748588 9.44674e-20)
(4.45718 0.00743403 0)
(4.44861 0.00739052 0)
(4.43986 0.00735865 -4.49762e-20)
(4.43094 0.00733858 0)
(4.42181 0.00733539 8.69887e-20)
(4.41245 0.00735183 0)
(4.40284 0.00739548 0)
(4.39285 0.00747603 0)
(4.38266 0.00758933 0)
(4.37153 0.00781592 -3.98688e-20)
(4.36105 0.00795297 -3.91581e-20)
(4.34697 0.008668 0)
(4.33829 0.00832326 0)
(4.31574 0.0109552 0)
(4.31516 0.00798935 3.6369e-20)
(4.27321 0.0166771 0)
(4.28752 0.00621707 -7.00271e-20)
(4.22138 0.0280714 6.86836e-20)
(4.23265 0.00491545 6.73855e-20)
(4.17157 0.0482652 6.60728e-20)
(4.11352 0.00922792 6.48502e-20)
(4.10698 0.0920527 6.35718e-20)
(3.88197 0.0433837 0)
(-0.0430014 0.419095 0)
(-0.12421 0.386758 0)
(-0.198441 0.371891 5.47464e-20)
(-0.273933 0.362392 5.42791e-20)
(-0.347402 0.350147 -5.39832e-20)
(-0.418961 0.334596 -5.36129e-20)
(-0.487621 0.315659 -8.31641e-23)
(-0.552598 0.293219 0)
(-0.613163 0.267485 0)
(-0.668395 0.238222 0)
(-0.717339 0.205719 0)
(-0.759339 0.170055 0)
(-0.793483 0.131374 1.53663e-19)
(-0.818969 0.0900049 0)
(-0.835341 0.0462141 -5.06966e-20)
(-0.841532 0.000620166 -5.04233e-20)
(-0.836468 -0.0469003 0)
(-0.819971 -0.0952661 0)
(-0.791795 -0.14386 0)
(-0.751711 -0.192257 0)
(-0.699632 -0.239599 -4.92034e-20)
(-0.635579 -0.285311 0)
(-0.560484 -0.328753 4.8764e-20)
(-0.4744 -0.369395 0)
(-0.37749 -0.406307 0)
(-0.271358 -0.439939 0)
(-0.156843 -0.469199 9.57927e-20)
(-0.0344824 -0.494267 0)
(0.0945136 -0.515172 -4.74766e-20)
(0.22888 -0.531584 9.45014e-20)
(0.367742 -0.543784 0)
(0.510162 -0.551935 0)
(0.65527 -0.556249 0)
(0.802202 -0.556986 -4.62887e-20)
(0.950091 -0.554452 -4.6029e-20)
(1.09816 -0.548978 0)
(1.24578 -0.540888 0)
(1.39237 -0.530498 9.0418e-20)
(1.53736 -0.518126 8.98349e-20)
(1.68026 -0.504086 -8.92366e-20)
(1.8207 -0.488672 0)
(1.9584 -0.472153 0)
(2.09303 -0.454775 0)
(2.22432 -0.436767 0)
(2.35211 -0.418334 8.60396e-20)
(2.47632 -0.39966 8.53766e-20)
(2.59681 -0.380906 -8.46975e-20)
(2.71348 -0.362216 0)
(2.82626 -0.34371 0)
(2.93519 -0.325488 0)
(3.04029 -0.307643 0)
(3.14153 -0.290251 8.12077e-20)
(3.23892 -0.273368 0)
(3.33254 -0.257039 0)
(3.42247 -0.241298 7.90696e-20)
(3.50876 -0.226176 7.83564e-20)
(3.59147 -0.211693 0)
(3.67068 -0.197855 -1.53844e-19)
(3.7465 -0.184665 7.621e-20)
(3.81902 -0.172122 -7.54959e-20)
(3.88831 -0.160221 0)
(3.95446 -0.14895 0)
(4.01759 -0.138293 0)
(4.0778 -0.128237 0)
(4.13517 -0.118763 -7.19534e-20)
(4.18981 -0.109851 -1.42497e-19)
(4.24181 -0.101474 -7.05553e-20)
(4.29127 -0.0936124 6.98611e-20)
(4.33829 -0.0862481 0)
(4.38295 -0.0793581 -1.3696e-19)
(4.42535 -0.0729114 -1.35595e-19)
(4.46559 -0.0668854 -1.34237e-19)
(4.50377 -0.0612444 1.32887e-19)
(4.53995 -0.055968 0)
(4.57422 -0.0510402 1.95322e-19)
(4.60669 -0.0464409 0)
(4.63741 -0.0421542 -6.37837e-20)
(4.66647 -0.0381615 -6.31355e-20)
(4.69394 -0.034448 0)
(4.71989 -0.0309855 0)
(4.74441 -0.0277651 -1.22398e-19)
(4.76756 -0.0247615 0)
(4.78939 -0.0219808 -1.19864e-19)
(4.80998 -0.0194068 0)
(4.82938 -0.0170321 1.17365e-19)
(4.84765 -0.0148579 2.32261e-19)
(4.86487 -0.0128534 0)
(4.88109 -0.0109954 0)
(4.89633 -0.00927371 0)
(4.91067 -0.00767443 1.11272e-19)
(4.92415 -0.00619534 0)
(4.93682 -0.00482316 1.08896e-19)
(4.94871 -0.00355856 0)
(4.95987 -0.00240054 0)
(4.97034 -0.00131722 -2.10791e-19)
(4.98014 -0.000313344 0)
(4.98933 0.000612183 -1.03103e-19)
(4.99793 0.00146346 0)
(5.00598 0.00224381 -1.00844e-19)
(5.0135 0.00296039 0)
(5.02054 0.00362132 0)
(5.02712 0.00423043 0)
(5.03326 0.00478896 -2.89269e-19)
(5.03898 0.00529885 -9.5338e-20)
(5.04431 0.00576395 0)
(5.04928 0.00618921 0)
(5.05391 0.00657864 0)
(5.05822 0.006934 0)
(5.06222 0.00725576 9.00247e-20)
(5.06592 0.00754509 -1.77968e-19)
(5.06936 0.00780502 -8.79517e-20)
(5.07254 0.00803969 1.73851e-19)
(5.07549 0.00825197 1.71815e-19)
(5.07822 0.00844266 8.48966e-20)
(5.08074 0.00861143 0)
(5.08305 0.00875897 1.6579e-19)
(5.08517 0.00888757 0)
(5.08713 0.00900017 -1.61843e-19)
(5.08892 0.00909936 -7.99453e-20)
(5.09056 0.00918593 0)
(5.09205 0.00925946 1.56024e-19)
(5.0934 0.00931973 7.70559e-20)
(5.09463 0.00936727 0)
(5.09573 0.00940332 7.5162e-20)
(5.09672 0.00942972 -2.22676e-19)
(5.0976 0.00944821 0)
(5.09839 0.00945967 0)
(5.09908 0.0094644 0)
(5.09969 0.00946248 0)
(5.10021 0.00945395 -1.39268e-19)
(5.10064 0.0094391 -1.37469e-19)
(5.101 0.00941843 0)
(5.10129 0.00939274 0)
(5.10151 0.00936315 0)
(5.10167 0.0093307 0)
(5.10177 0.00929591 0)
(5.10181 0.00925827 0)
(5.10178 0.00921678 -1.25201e-19)
(5.1017 0.00917124 -1.63634e-25)
(5.10157 0.00912282 0)
(5.10139 0.00907321 0)
(5.10116 0.00902321 -1.18439e-19)
(5.10089 0.00897231 0)
(5.10056 0.00891963 1.15122e-19)
(5.10018 0.00886451 1.1348e-19)
(5.09976 0.00880712 0)
(5.09929 0.00874895 0)
(5.09878 0.0086921 -1.08615e-19)
(5.09823 0.00863771 -2.14027e-19)
(5.09763 0.00858517 0)
(5.09697 0.00853357 0)
(5.09627 0.00848269 0)
(5.09552 0.00843307 -1.00707e-19)
(5.0947 0.00838602 9.91543e-20)
(5.09384 0.00834362 0)
(5.09291 0.00830772 1.92155e-19)
(5.09191 0.00828035 9.45533e-20)
(5.09084 0.00826392 -1.86077e-19)
(5.08969 0.00826065 0)
(5.08844 0.00827502 0)
(5.08707 0.00831009 -1.77095e-19)
(5.08556 0.0083718 -8.70694e-20)
(5.08392 0.00846741 0)
(5.08204 0.00860989 0)
(5.08 0.00880118 0)
(5.07755 0.00909114 0)
(5.07491 0.0094269 -1.59623e-19)
(5.07161 0.00998209 0)
(5.06782 0.0106194 0)
(5.06374 0.0113344 0)
(5.05671 0.0134851 0)
(5.05383 0.0121889 0)
(5.03759 0.0216419 0)
(5.04048 0.00986234 -1.40154e-19)
(5.0078 0.0407283 0)
(5.0116 0.00681106 0)
(4.97341 0.0699095 -2.64536e-19)
(4.93965 0.0246312 1.29678e-19)
(4.92944 0.115218 -1.27332e-19)
(4.81592 0.0961248 1.24737e-19)
(-0.044464 0.601131 0)
(-0.134692 0.560795 -1.09865e-19)
(-0.216557 0.538938 0)
(-0.300185 0.525796 -5.42787e-20)
(-0.38193 0.508552 0)
(-0.461736 0.486572 0)
(-0.538658 0.459716 5.29253e-20)
(-0.611715 0.427878 0)
(-0.680043 0.391001 0)
(-0.742918 0.349136 0)
(-0.799137 0.30246 0)
(-0.847908 0.250842 0)
(-0.88819 0.194888 -2.04538e-19)
(-0.919026 0.134833 -1.01571e-19)
(-0.939438 0.0709509 1.01018e-19)
(-0.949104 0.00439819 0)
(-0.946481 -0.0648678 0)
(-0.930256 -0.135633 0)
(-0.901128 -0.206974 0)
(-0.858597 -0.277847 0)
(-0.802725 -0.347161 -9.81656e-20)
(-0.73333 -0.414102 -9.77514e-20)
(-0.651342 -0.477426 9.73465e-20)
(-0.557247 -0.536262 -9.69472e-20)
(-0.452141 -0.590026 0)
(-0.337012 -0.638184 0)
(-0.212554 -0.680322 -9.57926e-20)
(-0.080813 -0.715898 0)
(0.0577764 -0.745355 0)
(0.201639 -0.768303 -9.45014e-20)
(0.349275 -0.785126 -9.40398e-20)
(0.499955 -0.796097 -9.35761e-20)
(0.652706 -0.801592 0)
(0.806549 -0.802057 0)
(0.960552 -0.797966 9.20841e-20)
(1.11396 -0.789789 0)
(1.26618 -0.777999 0)
(1.41668 -0.763078 -9.04191e-20)
(1.56488 -0.7455 8.98686e-20)
(1.71034 -0.725701 -8.92694e-20)
(1.85275 -0.704074 0)
(1.99186 -0.680982 0)
(2.12744 -0.656778 -1.74746e-19)
(2.25926 -0.631779 0)
(2.3872 -0.606254 -1.72119e-19)
(2.51121 -0.580438 -2.56154e-19)
(2.63122 -0.554541 2.54115e-19)
(2.74718 -0.528755 -1.68039e-19)
(2.85908 -0.503237 0)
(2.96696 -0.478119 0)
(3.07087 -0.453512 -1.63842e-19)
(3.17082 -0.42951 -8.12121e-20)
(3.26687 -0.406184 0)
(3.35912 -0.383592 0)
(3.44765 -0.361782 -7.9075e-20)
(3.53254 -0.340789 -1.56715e-19)
(3.61385 -0.320631 0)
(3.6917 -0.301318 1.53856e-19)
(3.76621 -0.282853 -1.52419e-19)
(3.83746 -0.26524 1.5099e-19)
(3.90554 -0.248472 0)
(3.97054 -0.23253 0)
(4.03259 -0.217396 0)
(4.09179 -0.203054 0)
(4.14823 -0.189484 0)
(4.202 -0.176659 1.42514e-19)
(4.25321 -0.164548 0)
(4.30196 -0.153126 0)
(4.34833 -0.142367 0)
(4.39243 -0.132242 2.73949e-19)
(4.43433 -0.122718 1.35613e-19)
(4.47414 -0.113764 1.34256e-19)
(4.51194 -0.105356 -2.65806e-19)
(4.54781 -0.0974688 1.31559e-19)
(4.58183 -0.0900731 -1.30233e-19)
(4.61408 -0.0831427 0)
(4.64465 -0.0766546 1.27593e-19)
(4.6736 -0.0705872 0)
(4.701 -0.0649122 0)
(4.72694 -0.0596078 0)
(4.75148 -0.0546435 2.44834e-19)
(4.77467 -0.0500142 -1.21144e-19)
(4.79658 -0.045693 -1.19877e-19)
(4.81727 -0.0416703 -2.37257e-19)
(4.83681 -0.0379191 -3.52155e-19)
(4.85526 -0.0344055 -1.16152e-19)
(4.87269 -0.0311237 0)
(4.88913 -0.028064 -2.27406e-19)
(4.90462 -0.0252128 0)
(4.91922 -0.0225549 -3.33881e-19)