/*--------------------------------*- C++ -*----------------------------------*\
| =========                 |                                                 |
| \\      /  F ield         | OpenFOAM: The Open Source CFD Toolbox           |
|  \\    /   O peration     | Version:  2.1.x                                 |
|   \\  /    A nd           | Web:      www.OpenFOAM.org                      |
|    \\/     M anipulation  |                                                 |
\*---------------------------------------------------------------------------*/
FoamFile
{
    version     2.0;
    format      ascii;
    class       volVectorField;
    location    "0.004";
    object      UMean;
}
// * * * * * * * * * * * * * * * * * * * * * * * * * * * * * * * * * * * * * //

dimensions      [0 1 -1 0 0 0 0];

internalField   nonuniform List<vector> 
12225
(
(7.07766 0.378833 0)
(4.74572 0.178124 0)
(3.52577 0.0248206 0)
(2.99641 -0.0139599 0)
(2.7939 -0.0157154 0)
(2.78903 -0.0117113 0)
(2.76868 -0.00696929 0)
(2.8686 -0.00729275 0)
(2.86814 -0.00697384 0)
(3.02095 -0.00930213 0)
(3.05 -0.013674 0)
(3.24547 -0.00968295 0)
(3.35899 -0.0239609 0)
(3.53619 -0.010784 0)
(3.96767 -0.0600199 0)
(3.92903 0.0196803 0)
(5.19341 -0.297742 0)
(4.9947 0.0877528 0)
(9.62202 0.895726 0)
(9.1238 0.741513 0)
(8.1697 0.367642 0)
(7.4215 0.165408 0)
(6.87448 0.0601981 0)
(6.74296 0.0101317 0)
(6.52437 -0.0163935 0)
(6.69833 -0.025485 0)
(6.56317 -0.0347827 0)
(6.88538 -0.0551162 0)
(6.81609 -0.0487628 0)
(7.20322 -0.10632 0)
(7.27799 -0.0601154 0)
(7.67201 -0.207298 0)
(8.039 -0.118535 0)
(8.46348 -0.371379 0)
(9.23695 -0.454437 0)
(9.94456 -0.836767 0)
(9.88715 0.736218 0)
(10.6095 0.792249 0)
(10.4555 0.475493 0)
(10.133 0.286789 0)
(9.65988 0.163345 0)
(9.51474 0.0834803 0)
(9.24605 0.0179955 0)
(9.31682 -0.0222727 0)
(9.19442 -0.0536154 0)
(9.38377 -0.0989745 0)
(9.39173 -0.113287 0)
(9.64453 -0.173726 0)
(9.77802 -0.194974 0)
(10.0971 -0.294198 0)
(10.3834 -0.358831 0)
(10.8269 -0.534759 0)
(11.2606 -0.757966 0)
(11.8516 -1.3218 0)
(9.74548 0.540274 0)
(10.6583 0.707277 0)
(10.9539 0.470329 0)
(10.9877 0.316015 0)
(10.8453 0.207329 0)
(10.7783 0.122769 0)
(10.7174 0.0609815 0)
(10.6933 -0.00582681 0)
(10.7224 -0.0467012 0)
(10.7323 -0.117061 0)
(10.8472 -0.145238 0)
(10.9179 -0.212309 0)
(11.1081 -0.264452 0)
(11.2387 -0.361699 0)
(11.5085 -0.494406 0)
(11.7153 -0.662472 0)
(12.0438 -0.978847 0)
(12.2875 -1.40526 0)
(9.78593 0.43438 0)
(10.5267 0.591606 0)
(10.8765 0.440704 0)
(11.0076 0.272904 0)
(10.9912 0.200019 0)
(11.0097 0.0868103 0)
(11.0174 0.0609995 0)
(11.0703 -0.0373429 0)
(11.1036 -0.0491884 0)
(11.1627 -0.156776 0)
(11.2304 -0.170304 0)
(11.3322 -0.278738 0)
(11.4488 -0.319221 0)
(11.5954 -0.470675 0)
(11.7571 -0.587377 0)
(11.9308 -0.822369 0)
(12.1269 -1.10356 0)
(12.2487 -1.512 0)
(9.82417 0.31793 0)
(10.3889 0.498007 0)
(10.7247 0.396693 0)
(10.8515 0.264237 0)
(10.9076 0.172227 0)
(10.9217 0.0933783 0)
(10.9666 0.0364703 0)
(11.0157 -0.0214819 0)
(11.089 -0.0894801 0)
(11.1487 -0.160114 0)
(11.2287 -0.230327 0)
(11.3143 -0.306162 0)
(11.4273 -0.401782 0)
(11.5464 -0.529749 0)
(11.6817 -0.691789 0)
(11.8148 -0.911923 0)
(11.9289 -1.18555 0)
(11.9965 -1.54708 0)
(9.76145 0.225501 0)
(10.201 0.372085 0)
(10.4838 0.34103 0)
(10.6097 0.204696 0)
(10.6897 0.132596 0)
(10.717 0.0371339 0)
(10.7678 -0.00171699 0)
(10.8192 -0.0757405 0)
(10.8984 -0.123529 0)
(10.9606 -0.208756 0)
(11.0416 -0.273811 0)
(11.1192 -0.372756 0)
(11.2221 -0.469055 0)
(11.3237 -0.612628 0)
(11.4392 -0.778717 0)
(11.5317 -0.993031 0)
(11.6156 -1.25301 0)
(11.6575 -1.57515 0)
(9.82464 0.193798 0)
(10.2008 0.328921 0)
(10.4262 0.307628 0)
(10.5424 0.208157 0)
(10.6252 0.116905 0)
(10.6645 0.0392361 0)
(10.7143 -0.0186848 0)
(10.7671 -0.0791205 0)
(10.8441 -0.147831 0)
(10.9119 -0.226565 0)
(10.9945 -0.30684 0)
(11.069 -0.40232 0)
(11.1579 -0.514214 0)
(11.2416 -0.656863 0)
(11.3342 -0.828551 0)
(11.4061 -1.04057 0)
(11.4671 -1.28654 0)
(11.4812 -1.56256 0)
(9.78009 0.134131 0)
(10.1215 0.251134 0)
(10.3221 0.251934 0)
(10.4305 0.1702 0)
(10.5149 0.0859267 0)
(10.5588 0.00263455 0)
(10.615 -0.0540798 0)
(10.6703 -0.116976 0)
(10.7458 -0.183054 0)
(10.812 -0.265452 0)
(10.8919 -0.350397 0)
(10.9657 -0.454316 0)
(11.0506 -0.569866 0)
(11.1249 -0.714639 0)
(11.2035 -0.883889 0)
(11.258 -1.0848 0)
(11.2948 -1.30617 0)
(11.289 -1.55948 0)
(9.8146 0.108585 0)
(10.1041 0.201497 0)
(10.2635 0.205261 0)
(10.3587 0.144003 0)
(10.4404 0.0643277 0)
(10.4905 -0.0162965 0)
(10.544 -0.0780429 0)
(10.5948 -0.143628 0)
(10.6632 -0.21109 0)
(10.729 -0.294706 0)
(10.803 -0.383475 0)
(10.8674 -0.489797 0)
(10.9353 -0.609238 0)
(10.9934 -0.75236 0)
(11.0516 -0.916257 0)
(11.0871 -1.10829 0)
(11.1053 -1.31623 0)
(11.0899 -1.54279 0)
(9.89319 0.0849649 0)
(10.1583 0.150695 0)
(10.2876 0.159034 0)
(10.361 0.109461 0)
(10.4251 0.0395479 0)
(10.4698 -0.0405082 0)
(10.5139 -0.109225 0)
(10.5544 -0.178181 0)
(10.6038 -0.248774 0)
(10.652 -0.33463 0)
(10.7066 -0.427899 0)
(10.7571 -0.536955 0)
(10.8086 -0.658335 0)
(10.8511 -0.798815 0)
(10.8892 -0.954736 0)
(10.9086 -1.13176 0)
(10.909 -1.31977 0)
(10.8812 -1.5152 0)
(9.77562 0.0540207 0)
(10.0237 0.10398 0)
(10.1329 0.109842 0)
(10.1981 0.0680721 0)
(10.2622 0.00989994 0)
(10.3142 -0.0635921 0)
(10.3681 -0.131605 0)
(10.4157 -0.203949 0)
(10.4662 -0.277605 0)
(10.5137 -0.364343 0)
(10.5647 -0.460242 0)
(10.6087 -0.57246 0)
(10.6505 -0.69342 0)
(10.6807 -0.829521 0)
(10.7041 -0.977355 0)
(10.7104 -1.14138 0)
(10.698 -1.30627 0)
(10.6643 -1.47871 0)
(9.81847 0.0478565 0)
(10.0413 0.0656189 0)
(10.1279 0.0594383 0)
(10.1774 0.0216743 0)
(10.2324 -0.0319949 0)
(10.2829 -0.102734 0)
(10.3382 -0.172356 0)
(10.3852 -0.248266 0)
(10.4318 -0.323215 0)
(10.4704 -0.408861 0)
(10.5095 -0.501918 0)
(10.5402 -0.609603 0)
(10.5676 -0.724499 0)
(10.5822 -0.852893 0)
(10.589 -0.986135 0)
(10.578 -1.13103 0)
(10.553 -1.28213 0)
(10.5132 -1.44051 0)
(9.79336 0.0300932 0)
(10.0236 0.0270635 0)
(10.1036 0.0156211 0)
(10.1405 -0.0225028 0)
(10.1817 -0.0730884 0)
(10.2199 -0.137773 0)
(10.2637 -0.202626 0)
(10.3002 -0.276677 0)
(10.3365 -0.352501 0)
(10.3635 -0.438991 0)
(10.3902 -0.530321 0)
(10.4088 -0.634743 0)
(10.4253 -0.743334 0)
(10.4305 -0.863387 0)
(10.4286 -0.984915 0)
(10.4115 -1.1156 0)
(10.3814 -1.24674 0)
(10.3324 -1.37763 0)
(9.84219 0.00445554 0)
(10.061 -0.010269 0)
(10.1269 -0.030632 0)
(10.1465 -0.068713 0)
(10.1713 -0.113919 0)
(10.2004 -0.173451 0)
(10.2375 -0.236021 0)
(10.2695 -0.309686 0)
(10.3001 -0.385314 0)
(10.3199 -0.469954 0)
(10.3347 -0.556732 0)
(10.3395 -0.654339 0)
(10.3408 -0.753494 0)
(10.332 -0.860523 0)
(10.3154 -0.966268 0)
(10.2855 -1.07795 0)
(10.2451 -1.18799 0)
(10.1903 -1.30853 0)
(9.7687 -0.00367224 0)
(9.97765 -0.03199 0)
(10.0329 -0.0618945 0)
(10.0487 -0.103892 0)
(10.0718 -0.15 0)
(10.1001 -0.207121 0)
(10.1318 -0.266398 0)
(10.1573 -0.334021 0)
(10.1771 -0.402767 0)
(10.1851 -0.479289 0)
(10.1836 -0.557606 0)
(10.1731 -0.644608 0)
(10.1584 -0.733159 0)
(10.1372 -0.828061 0)
(10.1075 -0.921886 0)
(10.0676 -1.01844 0)
(10.0194 -1.10839 0)
(9.96282 -1.19896 0)
(9.71547 -0.0254786 0)
(9.92115 -0.0708632 0)
(9.97155 -0.110908 0)
(9.98066 -0.158095 0)
(9.99476 -0.205193 0)
(10.0118 -0.256059 0)
(10.0312 -0.304864 0)
(10.0448 -0.360877 0)
(10.0553 -0.419423 0)
(10.0552 -0.486758 0)
(10.0469 -0.55579 0)
(10.0276 -0.632053 0)
(10.0042 -0.708823 0)
(9.97288 -0.790214 0)
(9.93567 -0.868638 0)
(9.88807 -0.94896 0)
(9.83482 -1.02652 0)
(9.77621 -1.10225 0)
(9.81659 -0.0150207 0)
(10.0127 -0.0807337 0)
(10.0518 -0.131983 0)
(10.0503 -0.178677 0)
(10.0583 -0.220835 0)
(10.0732 -0.265173 0)
(10.0903 -0.307141 0)
(10.1 -0.354172 0)
(10.1062 -0.402387 0)
(10.1026 -0.457104 0)
(10.0899 -0.512422 0)
(10.064 -0.573074 0)
(10.0328 -0.633543 0)
(9.9939 -0.698121 0)
(9.94977 -0.76076 0)
(9.89514 -0.82565 0)
(9.83546 -0.88641 0)
(9.76876 -0.948735 0)
(9.80973 -0.027552 0)
(10.0217 -0.0994974 0)
(10.0702 -0.162161 0)
(10.0676 -0.216275 0)
(10.0668 -0.260379 0)
(10.073 -0.302298 0)
(10.0819 -0.338857 0)
(10.0824 -0.376345 0)
(10.0786 -0.412474 0)
(10.0664 -0.453444 0)
(10.0467 -0.494917 0)
(10.0168 -0.540327 0)
(9.98213 -0.585009 0)
(9.94164 -0.632899 0)
(9.89525 -0.679555 0)
(9.83964 -0.728727 0)
(9.77798 -0.775351 0)
(9.71127 -0.822763 0)
(9.76876 -0.0528976 0)
(9.99307 -0.112828 0)
(10.0489 -0.175593 0)
(10.0537 -0.228788 0)
(10.0543 -0.264364 0)
(10.0565 -0.29325 0)
(10.0591 -0.317767 0)
(10.0528 -0.344905 0)
(10.0396 -0.37264 0)
(10.0175 -0.405566 0)
(9.98878 -0.439452 0)
(9.95221 -0.475881 0)
(9.9126 -0.510632 0)
(9.86876 -0.546899 0)
(9.82067 -0.581426 0)
(9.76482 -0.61777 0)
(9.70451 -0.652111 0)
(9.64063 -0.687739 0)
(9.84755 -0.0783171 0)
(10.0566 -0.152057 0)
(10.1141 -0.216743 0)
(10.1321 -0.265092 0)
(10.1461 -0.292619 0)
(10.1571 -0.311124 0)
(10.1614 -0.325474 0)
(10.1537 -0.343163 0)
(10.1353 -0.362152 0)
(10.1067 -0.385731 0)
(10.0709 -0.40961 0)
(10.0281 -0.435953 0)
(9.98224 -0.461163 0)
(9.93207 -0.488609 0)
(9.87743 -0.515254 0)
(9.81566 -0.54384 0)
(9.75004 -0.570696 0)
(9.6814 -0.598374 0)
(9.78232 -0.0672808 0)
(10.0122 -0.175112 0)
(10.0875 -0.250895 0)
(10.1232 -0.292104 0)
(10.1508 -0.305116 0)
(10.1675 -0.306533 0)
(10.1709 -0.304681 0)
(10.1589 -0.309406 0)
(10.136 -0.318496 0)
(10.1039 -0.333568 0)
(10.0664 -0.349456 0)
(10.0227 -0.367811 0)
(9.97594 -0.385177 0)
(9.92416 -0.404678 0)
(9.86758 -0.423444 0)
(9.80394 -0.443895 0)
(9.73672 -0.462808 0)
(9.66662 -0.482701 0)
(9.9092 -0.102715 0)
(10.1466 -0.24504 0)
(10.2383 -0.318974 0)
(10.2858 -0.33844 0)
(10.3158 -0.330271 0)
(10.3281 -0.316962 0)
(10.324 -0.307464 0)
(10.3047 -0.307202 0)
(10.2768 -0.310898 0)
(10.2415 -0.318614 0)
(10.2014 -0.326152 0)
(10.1545 -0.33557 0)
(10.1032 -0.344435 0)
(10.0459 -0.355804 0)
(9.98345 -0.367034 0)
(9.9148 -0.380044 0)
(9.84301 -0.391997 0)
(9.7691 -0.405011 0)
(9.81615 -0.0996966 0)
(10.1078 -0.276568 0)
(10.2448 -0.350317 0)
(10.3248 -0.354814 0)
(10.3731 -0.328573 0)
(10.3923 -0.3001 0)
(10.3856 -0.281022 0)
(10.3589 -0.27287 0)
(10.321 -0.26905 0)
(10.2755 -0.268848 0)
(10.2253 -0.268616 0)
(10.1696 -0.270426 0)
(10.1101 -0.272581 0)
(10.0463 -0.27779 0)
(9.97874 -0.283649 0)
(9.90677 -0.291369 0)
(9.83234 -0.298187 0)
(9.75591 -0.30589 0)
(9.79769 -0.188448 0)
(10.1448 -0.386555 0)
(10.3362 -0.442345 0)
(10.4442 -0.416456 0)
(10.4947 -0.361681 0)
(10.5025 -0.314888 0)
(10.4834 -0.283134 0)
(10.4486 -0.263029 0)
(10.4061 -0.24875 0)
(10.3579 -0.239471 0)
(10.3059 -0.23254 0)
(10.2492 -0.229192 0)
(10.1893 -0.227351 0)
(10.1253 -0.228347 0)
(10.058 -0.229718 0)
(9.98611 -0.231885 0)
(9.91143 -0.23292 0)
(9.83304 -0.234388 0)
(9.75136 -0.232811 0)
(10.1681 -0.467473 0)
(10.4262 -0.500688 0)
(10.5657 -0.439185 0)
(10.6196 -0.362941 0)
(10.6171 -0.304959 0)
(10.5863 -0.264354 0)
(10.5418 -0.235041 0)
(10.49 -0.21312 0)
(10.4332 -0.197127 0)
(10.3722 -0.185426 0)
(10.3072 -0.178043 0)
(10.2389 -0.173047 0)
(10.1678 -0.170455 0)
(10.0941 -0.168128 0)
(10.0181 -0.165645 0)
(9.93949 -0.161735 0)
(9.8582 -0.157592 0)
(9.78989 -0.326799 0)
(10.3284 -0.594211 0)
(10.6538 -0.582568 0)
(10.7907 -0.474748 0)
(10.804 -0.381315 0)
(10.75 -0.312342 0)
(10.6696 -0.260445 0)
(10.5781 -0.219325 0)
(10.4856 -0.188697 0)
(10.393 -0.165519 0)
(10.3035 -0.149655 0)
(10.2136 -0.137995 0)
(10.1257 -0.129953 0)
(10.0369 -0.123458 0)
(9.94928 -0.118146 0)
(9.86082 -0.111903 0)
(9.77285 -0.104735 0)
(9.68292 -0.0960532 0)
(9.83488 -0.42931 0)
(10.4886 -0.739179 0)
(10.7159 -0.64234 0)
(10.6513 -0.472207 0)
(10.4515 -0.345137 0)
(10.2182 -0.256074 0)
(9.99985 -0.194069 0)
(9.80317 -0.14857 0)
(9.63516 -0.117889 0)
(9.4851 -0.0950524 0)
(9.35862 -0.0809558 0)
(9.23969 -0.0689345 0)
(9.13878 -0.0614648 0)
(9.03873 -0.05349 0)
(8.95454 -0.0484685 0)
(8.86798 -0.0411203 0)
(8.79546 -0.0342376 0)
(8.71699 -0.0229585 0)
(9.85941 -0.6686 0)
(9.96959 -0.88701 0)
(9.48319 -0.672854 0)
(8.83223 -0.441933 0)
(8.25292 -0.269831 0)
(7.81323 -0.154639 0)
(7.49917 -0.0863822 0)
(7.27441 -0.0487112 0)
(7.11447 -0.0301183 0)
(6.99169 -0.0199241 0)
(6.90338 -0.0161919 0)
(6.82411 -0.0126725 0)
(6.77053 -0.0129869 0)
(6.70973 -0.0107715 0)
(6.6763 -0.0120127 0)
(6.62375 -0.00893693 0)
(6.60608 -0.00903851 0)
(6.55338 -0.00333598 0)
(8.49367 -0.38241 0)
(6.4439 -0.33665 0)
(4.88827 -0.125459 0)
(3.95464 -0.015642 0)
(3.47938 0.023034 0)
(3.25509 0.030773 0)
(3.15142 0.0259654 0)
(3.10182 0.0183397 0)
(3.07502 0.012041 0)
(3.05712 0.00781651 0)
(3.0437 0.00539789 0)
(3.03068 0.00419249 0)
(3.02132 0.00357513 0)
(3.00804 0.00415711 0)
(3.00485 0.00276556 0)
(2.98616 0.00601737 0)
(2.9958 -0.00334771 0)
(2.95039 0.0139954 0)
(0.007647 -0.0223227 0)
(0.0353604 -0.0316426 0)
(0.0685135 -0.0336276 0)
(0.102243 -0.0347483 0)
(0.13767 -0.0359835 0)
(0.174543 -0.0374205 0)
(0.213357 -0.0390466 5.30828e-20)
(0.254273 -0.0408932 -5.27033e-20)
(0.297526 -0.0429254 0)
(0.343309 -0.0451017 -5.19546e-20)
(0.391832 -0.047381 0)
(0.443442 -0.0497678 0)
(0.498083 -0.0522391 0)
(0.55588 -0.0547175 5.04941e-20)
(0.616897 -0.0571868 0)
(0.681284 -0.0595779 0)
(0.748981 -0.0619108 -4.94259e-20)
(0.819854 -0.0640592 0)
(0.893885 -0.0660683 0)
(0.97084 -0.0678444 0)
(1.05054 -0.0693902 4.8026e-20)
(1.13279 -0.0706593 0)
(1.21742 -0.0716193 4.73321e-20)
(1.304 -0.0723048 0)
(1.39224 -0.0726678 0)
(1.48183 -0.0726961 4.62931e-20)
(1.57243 -0.0724017 0)
(1.6637 -0.0718003 -4.55995e-20)
(1.75524 -0.0708901 0)
(1.84674 -0.0696889 4.49038e-20)
(1.93787 -0.068224 0)
(2.02828 -0.0665172 0)
(2.11768 -0.0645829 0)
(2.2058 -0.0624472 0)
(2.29235 -0.0601478 0)
(2.3771 -0.0577138 -4.28002e-20)
(2.45985 -0.0551636 0)
(2.5404 -0.0525218 8.41887e-20)
(2.6186 -0.0498226 0)
(2.69429 -0.0470928 -8.27744e-20)
(2.76739 -0.0443473 0)
(2.83782 -0.0416042 0)
(2.9055 -0.0388889 8.06524e-20)
(2.97037 -0.0362215 0)
(3.03243 -0.0336104 7.92404e-20)
(3.09168 -0.0310639 -7.85359e-20)
(3.14812 -0.0285973 0)
(3.20177 -0.026224 -7.71311e-20)
(3.25267 -0.0239471 -7.64313e-20)
(3.30088 -0.0217662 0)
(3.34645 -0.0196871 0)
(3.38944 -0.0177176 0)
(3.42991 -0.0158584 0)
(3.46796 -0.0141039 0)
(3.50367 -0.0124513 7.22809e-20)
(3.53711 -0.0109031 0)
(3.56837 -0.00946017 -7.09199e-20)
(3.59753 -0.00811634 0)
(3.6247 -0.00686386 0)
(3.64995 -0.00569989 6.89028e-20)
(3.67337 -0.00462447 0)
(3.69504 -0.00363394 -6.75755e-20)
(3.71504 -0.00272038 0)
(3.73348 -0.00187708 0)
(3.75041 -0.00110153 0)
(3.76592 -0.000391887 6.49655e-20)
(3.78008 0.000256702 0)
(3.79296 0.000850943 0)
(3.80463 0.00139568 6.30485e-20)
(3.81516 0.00189339 0)
(3.82462 0.00234563 6.17902e-20)
(3.83305 0.00275416 0)
(3.84053 0.00311436 0)
(3.8471 0.00342572 0)
(3.85282 0.00369495 -5.93218e-20)
(3.85772 0.00392968 0)
(3.86186 0.00413602 0)
(3.86528 0.00431799 -5.75128e-20)
(3.86803 0.00447797 -5.69178e-20)
(3.87014 0.00461749 0)
(3.87165 0.00473856 -5.57398e-20)
(3.87259 0.00484289 0)
(3.87301 0.00493355 -1.09156e-19)
(3.87293 0.00501146 0)
(3.87238 0.00508493 -1.06863e-19)
(3.87136 0.0051522 0)
(3.86992 0.00521093 1.04602e-19)
(3.86808 0.00526128 0)
(3.86587 0.00530449 0)
(3.8633 0.00534098 0)
(3.8604 0.00537044 -1.00173e-19)
(3.85717 0.0053927 0)
(3.85364 0.00540861 9.80044e-20)
(3.84983 0.00541959 0)
(3.84576 0.00542664 -9.58656e-20)
(3.84143 0.00542972 -9.48073e-20)
(3.83686 0.00542886 -9.37563e-20)
(3.83205 0.0054249 0)
(3.82704 0.00541912 0)
(3.82182 0.00541209 0)
(3.81641 0.00540339 0)
(3.81081 0.00539207 0)
(3.80502 0.00537783 0)
(3.79907 0.00536145 0)
(3.79297 0.00534426 0)
(3.78672 0.00532689 8.46197e-20)
(3.78032 0.00530875 8.36393e-20)
(3.77378 0.0052887 0)
(3.76711 0.00526625 0)
(3.76031 0.00524209 0)
(3.7534 0.00521749 7.97847e-20)
(3.74637 0.00519321 0)
(3.73924 0.00516896 0)
(3.732 0.00514386 0)
(3.72465 0.00511733 0)
(3.71721 0.0050895 -7.51131e-20)
(3.70968 0.00506108 0)
(3.70206 0.00503277 0)
(3.69436 0.00500484 7.23857e-20)
(3.68658 0.00497707 -7.14889e-20)
(3.67871 0.00494895 0)
(3.67077 0.00492003 -6.97132e-20)
(3.66275 0.00489007 0)
(3.65466 0.00485924 6.79613e-20)
(3.6465 0.00482813 0)
(3.63828 0.00479735 0)
(3.62999 0.00476729 0)
(3.62165 0.00473774 0)
(3.61323 0.00470805 0)
(3.60476 0.00467756 -1.25687e-19)
(3.59622 0.00464605 -1.24021e-19)
(3.58763 0.00461395 0)
(3.57898 0.00458208 0)
(3.57028 0.00455104 0)
(3.56153 0.00452077 1.17462e-19)
(3.55272 0.00449057 0)
(3.54385 0.00445965 0)
(3.53493 0.00442773 0)
(3.52596 0.00439528 1.11071e-19)
(3.51695 0.00436303 -1.09499e-19)
(3.50788 0.00433139 0)
(3.49877 0.00430021 0)
(3.4896 0.00426904 -1.04842e-19)
(3.48039 0.00423742 -1.03309e-19)
(3.47112 0.00420521 0)
(3.46181 0.00417264 0)
(3.45245 0.00414021 9.87668e-20)
(3.44305 0.00410834 -9.72716e-20)
(3.43359 0.0040771 0)
(3.42409 0.00404609 0)
(3.41454 0.004015 -9.28407e-20)
(3.40494 0.00398379 0)
(3.39528 0.00395257 0)
(3.38557 0.00392139 -8.84899e-20)
(3.37581 0.00389056 0)
(3.36599 0.00386069 -8.56326e-20)
(3.35611 0.00383189 0)
(3.34616 0.00380448 0)
(3.33614 0.00377862 0)
(3.32603 0.00375412 8.00188e-20)
(3.31583 0.00373153 0)
(3.30552 0.00371144 0)
(3.29508 0.00369447 0)
(3.28449 0.0036822 0)
(3.27373 0.00367636 0)
(3.26274 0.00367677 0)
(3.25147 0.00369119 7.05088e-20)
(3.23987 0.00370833 6.91828e-20)
(3.22776 0.00376844 0)
(3.21526 0.00379805 0)
(3.20152 0.00398016 0)
(3.18785 0.00399087 -6.39675e-20)
(3.1705 0.00446846 0)
(3.15561 0.00443733 1.22844e-19)
(3.13018 0.00554105 -1.20332e-19)
(3.1126 0.00550199 -1.17865e-19)
(3.07272 0.00880074 1.15424e-19)
(3.0351 0.00720612 -1.13061e-19)
(2.98422 0.029553 1.1075e-19)
(2.81242 0.0144125 0)
(0.0055169 -0.0674389 0)
(0.0345662 -0.100212 0)
(0.0678806 -0.10667 -1.09257e-19)
(0.102341 -0.110142 0)
(0.138402 -0.11399 1.0769e-19)
(0.176066 -0.118518 1.06918e-19)
(0.215734 -0.123739 5.3065e-20)
(0.257606 -0.12967 5.27081e-20)
(0.302078 -0.136196 0)
(0.349363 -0.143313 5.19594e-20)
(0.399594 -0.150852 0)
(0.453108 -0.15876 0)
(0.510015 -0.166969 -1.01706e-19)
(0.570445 -0.175296 -5.04991e-20)
(0.634461 -0.183656 1.00271e-19)
(0.702169 -0.191901 9.95608e-20)
(0.773634 -0.199967 4.94309e-20)
(0.848691 -0.207617 0)
(0.927282 -0.214831 0)
(1.00927 -0.221449 0)
(1.09441 -0.227411 4.80312e-20)
(1.1826 -0.232579 0)
(1.27353 -0.236926 -1.42015e-19)
(1.36684 -0.24043 0)
(1.46232 -0.242989 0)
(1.5596 -0.244599 -4.62988e-20)
(1.6583 -0.245261 0)
(1.75811 -0.245 4.56054e-20)
(1.85867 -0.243832 9.05236e-20)
(1.95963 -0.241793 -4.49099e-20)
(2.06066 -0.238934 0)
(2.16145 -0.235317 0)
(2.2617 -0.231006 0)
(2.36112 -0.226063 8.70291e-20)
(2.45943 -0.220564 8.63258e-20)
(2.55641 -0.214584 4.28069e-20)
(2.65185 -0.208195 0)
(2.74555 -0.201467 -8.42024e-20)
(2.83733 -0.194469 0)
(2.92705 -0.187264 8.27885e-20)
(3.01461 -0.179912 0)
(3.0999 -0.172473 0)
(3.18281 -0.164998 -8.06669e-20)
(3.26329 -0.157532 0)
(3.34131 -0.150114 -2.37772e-19)
(3.41683 -0.14278 7.85507e-20)
(3.48982 -0.135568 0)
(3.56026 -0.128503 7.71462e-20)
(3.62819 -0.121606 7.64465e-20)
(3.69362 -0.114894 0)
(3.75656 -0.108389 0)
(3.81703 -0.102102 0)
(3.87508 -0.0960417 0)
(3.93076 -0.0902103 0)
(3.98413 -0.0846147 -7.22963e-20)
(4.03521 -0.0792612 -1.43229e-19)
(4.08406 -0.0741492 7.09352e-20)
(4.13076 -0.0692727 0)
(4.17537 -0.0646273 -1.39174e-19)
(4.21793 -0.060213 6.89175e-20)
(4.25851 -0.0560277 0)
(4.29718 -0.0520632 6.75907e-20)
(4.33401 -0.0483089 0)
(4.36905 -0.0447579 0)
(4.40237 -0.0414064 1.31253e-19)
(4.43403 -0.0382484 -6.49805e-20)
(4.4641 -0.0352731 1.28673e-19)
(4.49264 -0.0324695 -1.27395e-19)
(4.5197 -0.0298304 -6.30632e-20)
(4.54536 -0.0273513 0)
(4.56965 -0.0250259 -6.18048e-20)
(4.59264 -0.0228457 0)
(4.61439 -0.0208046 0)
(4.63494 -0.0188972 0)
(4.65435 -0.0171169 -5.93344e-20)
(4.67268 -0.0154553 0)
(4.68997 -0.0139033 -1.1625e-19)
(4.70626 -0.0124526 1.72578e-19)
(4.72161 -0.0110971 5.69316e-20)
(4.73604 -0.00983092 0)
(4.74962 -0.00864874 5.57534e-20)
(4.76237 -0.00754376 0)
(4.77434 -0.00651344 1.09182e-19)
(4.78558 -0.00555267 0)
(4.79611 -0.0046641 1.0689e-19)
(4.80596 -0.00384266 -2.11507e-19)
(4.81515 -0.0030793 -1.04628e-19)
(4.82373 -0.00236791 0)
(4.83174 -0.0017059 0)
(4.83919 -0.00109157 0)
(4.84611 -0.000521272 1.00198e-19)
(4.85253 8.37045e-06 0)
(4.85849 0.000501404 -9.80291e-20)
(4.86399 0.000961111 0)
(4.86907 0.00138815 2.87667e-19)
(4.87375 0.00178306 9.48314e-20)
(4.87804 0.00214835 9.37803e-20)
(4.88197 0.00248733 0)
(4.88556 0.00280258 0)
(4.88883 0.00309533 0)
(4.89178 0.00336603 0)
(4.89444 0.00361548 0)
(4.89682 0.00384538 1.75248e-19)
(4.89894 0.00405785 1.73245e-19)
(4.90082 0.00425458 0)
(4.90246 0.00443636 -8.4642e-20)
(4.90388 0.00460333 -8.36614e-20)
(4.90508 0.00475565 0)
(4.90607 0.00489418 -1.63439e-19)
(4.90688 0.0050205 0)
(4.90751 0.00513637 7.98044e-20)
(4.90798 0.00524288 0)
(4.90828 0.00534027 0)
(4.90842 0.00542824 -1.53965e-19)
(4.90842 0.00550672 0)
(4.90827 0.00557644 7.51337e-20)
(4.908 0.00563872 0)
(4.9076 0.00569498 0)
(4.90708 0.0057461 7.24043e-20)
(4.90645 0.00579213 7.15089e-20)
(4.9057 0.00583255 0)
(4.90486 0.00586684 -6.97315e-20)
(4.90391 0.00589503 0)
(4.90286 0.00591788 6.79793e-20)
(4.90172 0.00593666 1.34225e-19)
(4.90051 0.00595261 0)
(4.8992 0.00596634 0)
(4.89782 0.00597773 0)
(4.89636 0.00598615 0)
(4.89483 0.005991 1.25725e-19)
(4.89321 0.00599218 3.7217e-19)
(4.89153 0.00599037 0)
(4.88978 0.00598677 0)
(4.88797 0.00598241 0)
(4.8861 0.00597751 -1.17498e-19)
(4.88416 0.00597139 0)
(4.88216 0.00596305 0)
(4.88009 0.00595202 2.25375e-19)
(4.87796 0.00593881 1.11104e-19)
(4.87578 0.00592457 1.09533e-19)
(4.87354 0.00591021 0)
(4.87124 0.00589591 0)
(4.86889 0.0058811 1.04875e-19)
(4.86647 0.00586494 -1.0334e-19)
(4.864 0.00584703 0)
(4.86147 0.00582786 0)
(4.85889 0.00580848 -9.87997e-20)
(4.85625 0.00578984 2.91911e-19)
(4.85355 0.00577235 0)
(4.85079 0.00575578 0)
(4.84798 0.0057395 9.28726e-20)
(4.84509 0.00572316 0)
(4.84215 0.00570707 1.79924e-19)
(4.83913 0.00569194 -8.85193e-20)
(4.83605 0.00567861 0)
(4.83289 0.00566839 8.56633e-20)
(4.82965 0.0056625 1.68493e-19)
(4.82633 0.00566194 0)
(4.82291 0.00566833 0)
(4.81937 0.00568256 -8.00487e-20)
(4.81571 0.00570645 0)
(4.81191 0.00574346 1.5458e-19)
(4.80793 0.0057964 0)
(4.80376 0.00587162 0)
(4.79934 0.00597535 0)
(4.79463 0.00611628 0)
(4.78952 0.00630825 -7.05372e-20)
(4.78405 0.00655166 -6.92111e-20)
(4.7777 0.0069252 0)
(4.7713 0.00727646 0)
(4.76232 0.0081714 0)
(4.75534 0.0083312 6.3995e-20)
(4.74025 0.0110414 0)
(4.73375 0.00948202 -1.22898e-19)
(4.70667 0.0181433 1.20385e-19)
(4.69773 0.0103445 1.17919e-19)
(4.65623 0.0362634 1.15446e-19)
(4.62023 0.0137722 1.13114e-19)
(4.57816 0.0912789 1.10679e-19)
(4.44637 0.0622734 0)
(0.00285887 -0.105726 0)
(0.0291455 -0.164429 0)
(0.0602156 -0.175663 1.09257e-19)
(0.0924421 -0.181462 1.08427e-19)
(0.12633 -0.187933 -1.0769e-19)
(0.161923 -0.195662 -1.06918e-19)
(0.199599 -0.204646 -3.86385e-23)
(0.239704 -0.214862 0)
(0.282518 -0.226127 0)
(0.328341 -0.238406 0)
(0.37749 -0.251494 0)
(0.430127 -0.265227 0)
(0.486451 -0.279438 3.05069e-19)
(0.546629 -0.2939 0)
(0.610662 -0.308428 -1.00271e-19)
(0.678687 -0.322733 -9.9561e-20)
(0.750808 -0.336717 0)
(0.826821 -0.350075 0)
(0.906578 -0.362589 0)
(0.989931 -0.374132 0)
(1.07667 -0.3845 -9.60628e-20)
(1.16658 -0.393563 0)
(1.25927 -0.401198 9.4678e-20)
(1.35448 -0.407336 0)
(1.45192 -0.411864 0)
(1.55109 -0.414834 0)
(1.65165 -0.416181 1.83844e-19)
(1.75324 -0.415959 0)
(1.85548 -0.41421 -9.05241e-20)
(1.95802 -0.411008 1.79682e-19)
(2.06049 -0.406445 0)
(2.16256 -0.400623 0)
(2.26394 -0.393648 0)
(2.36437 -0.385641 -8.70299e-20)
(2.46356 -0.376729 -8.63267e-20)
(2.56128 -0.36704 0)
(2.65734 -0.356689 0)
(2.75156 -0.345788 1.68441e-19)
(2.8438 -0.334453 1.67025e-19)
(2.9339 -0.322792 -1.65609e-19)
(3.02177 -0.310903 0)
(3.10735 -0.298873 0)
(3.19054 -0.286779 0)
(3.2713 -0.274698 0)
(3.3496 -0.262696 1.5852e-19)
(3.42543 -0.250829 1.57121e-19)
(3.49877 -0.239142 -1.55713e-19)
(3.56963 -0.227679 0)
(3.63802 -0.216476 0)
(3.70396 -0.205566 0)
(3.76749 -0.194971 0)
(3.82863 -0.184703 1.48731e-19)
(3.88744 -0.17478 0)
(3.94395 -0.165215 0)
(3.99822 -0.156016 1.446e-19)
(4.05028 -0.147183 1.43233e-19)
(4.10021 -0.138713 0)
(4.14806 -0.130605 -2.81049e-19)
(4.19388 -0.122861 1.39178e-19)
(4.23773 -0.115475 -1.3784e-19)
(4.27966 -0.108437 0)
(4.31975 -0.101736 0)
(4.35806 -0.0953645 0)
(4.39463 -0.0893171 0)
(4.42953 -0.0835831 -1.31258e-19)
(4.46281 -0.0781484 -2.59927e-19)
(4.49455 -0.0729996 -1.28678e-19)
(4.52479 -0.0681271 1.274e-19)
(4.55358 -0.0635229 0)
(4.58099 -0.0591765 -2.49732e-19)
(4.60707 -0.0550745 -2.47223e-19)
(4.63186 -0.0512034 -2.4473e-19)
(4.65544 -0.0475491 2.42253e-19)
(4.67783 -0.044101 0)
(4.6991 -0.0408504 3.56023e-19)
(4.71928 -0.0377886 0)
(4.73844 -0.0349057 -1.16252e-19)
(4.7566 -0.0321915 -1.15057e-19)
(4.77382 -0.029637 0)
(4.79013 -0.0272329 0)
(4.80558 -0.0249722 -2.23018e-19)
(4.8202 -0.0228464 0)
(4.83404 -0.0208529 -2.18369e-19)
(4.84713 -0.0189843 0)
(4.85949 -0.0172411 2.13784e-19)
(4.87118 -0.015615 4.23031e-19)
(4.88222 -0.0140934 0)
(4.89265 -0.0126686 0)
(4.90249 -0.011335 0)
(4.91177 -0.0100888 2.02593e-19)
(4.92053 -0.00892489 0)
(4.92878 -0.00783619 1.98225e-19)
(4.93655 -0.00681718 0)
(4.94388 -0.00586241 0)
(4.95077 -0.00496947 -3.83572e-19)
(4.95726 -0.00413707 0)
(4.96336 -0.00336143 -1.87566e-19)
(4.96909 -0.00263799 0)
(4.97449 -0.00196296 -1.83405e-19)
(4.97956 -0.00133372 0)
(4.98432 -0.000748283 0)
(4.98878 -0.000204114 0)
(4.99297 0.000302176 -5.25767e-19)
(4.9969 0.000773731 -1.73254e-19)
(5.00059 0.00121248 0)
(5.00405 0.00161931 0)
(5.0073 0.00199512 0)
(5.01033 0.00234175 0)
(5.01317 0.00266203 1.63448e-19)
(5.01582 0.00295881 -3.23051e-19)
(5.01831 0.00323407 -1.59619e-19)
(5.02065 0.00348861 3.15446e-19)
(5.02283 0.0037226 3.11683e-19)
(5.02486 0.00393653 1.53974e-19)
(5.02676 0.00413169 0)
(5.02854 0.00431019 3.00546e-19)
(5.03019 0.00447421 0)
(5.03174 0.00462541 -2.93247e-19)
(5.03319 0.00476452 -1.44819e-19)
(5.03454 0.0048915 0)
(5.0358 0.00500607 2.82483e-19)
(5.03697 0.00510837 1.39473e-19)
(5.03806 0.00519943 0)
(5.03908 0.00528108 1.35966e-19)
(5.04003 0.00535522 -4.02699e-19)
(5.04092 0.00542303 0)
(5.04174 0.00548465 0)
(5.04251 0.00553952 0)
(5.04323 0.00558706 0)
(5.04389 0.00562735 -2.51461e-19)
(5.04451 0.00566135 -2.48129e-19)
(5.04508 0.00569059 0)
(5.04562 0.00571655 0)
(5.04612 0.00573989 0)
(5.04658 0.00576026 0)
(5.04701 0.00577665 0)
(5.0474 0.00578832 0)
(5.04776 0.00579562 -2.25391e-19)
(5.0481 0.00579988 -2.09609e-24)
(5.0484 0.00580268 0)
(5.04869 0.00580483 0)
(5.04895 0.00580604 -2.12848e-19)
(5.04919 0.00580527 0)
(5.0494 0.00580153 2.06698e-19)
(5.04959 0.00579476 2.03649e-19)
(5.04975 0.00578629 0)
(5.0499 0.0057779 0)
(5.05003 0.00577075 -1.94622e-19)
(5.05014 0.00576499 -3.83296e-19)
(5.05023 0.00576022 0)
(5.0503 0.00575569 0)
(5.05034 0.00575095 0)
(5.05036 0.00574671 -1.79939e-19)
(5.05034 0.00574461 1.77056e-19)
(5.0503 0.0057463 0)
(5.05023 0.00575342 3.42677e-19)
(5.05013 0.00576784 1.68505e-19)
(5.04998 0.00579115 -3.31382e-19)
(5.04977 0.00582564 0)
(5.04951 0.00587386 0)
(5.04916 0.00593906 -3.14686e-19)
(5.04871 0.00602713 -1.54595e-19)
(5.04815 0.00614438 0)
(5.04744 0.00629992 0)
(5.04655 0.00650541 0)
(5.0454 0.00677674 0)
(5.04398 0.0071291 -2.8217e-19)
(5.04209 0.00759743 0)
(5.03982 0.00820915 0)
(5.03669 0.00899652 0)
(5.03293 0.0101955 0)
(5.02779 0.0112675 0)
(5.02101 0.0143686 0)
(5.01283 0.0145323 -2.45791e-19)
(4.99965 0.0242142 0)
(4.986 0.0195435 0)
(4.96163 0.047792 -4.61852e-19)
(4.93358 0.0363879 2.26071e-19)
(4.89823 0.108721 -2.2151e-19)
(4.84102 0.114853 2.16621e-19)
(-0.000776732 -0.133894 0)
(0.0212856 -0.222237 -2.19884e-19)
(0.0489257 -0.239296 0)
(0.0777373 -0.247612 -1.08427e-19)
(0.108236 -0.256982 0)
(0.140633 -0.268259 0)
(0.175323 -0.281453 1.06001e-19)
(0.212729 -0.296453 0)
(0.253235 -0.313123 0)
(0.297087 -0.331275 0)
(0.344668 -0.350614 0)
(0.396206 -0.371007 0)
(0.451931 -0.392069 -4.06653e-19)
(0.511986 -0.413477 -2.01864e-19)
(0.576521 -0.43504 2.00449e-19)
(0.645489 -0.456205 0)
(0.718945 -0.476837 0)
(0.796918 -0.496555 0)
(0.879006 -0.515049 0)
(0.96504 -0.53204 0)
(1.05476 -0.547267 -1.92118e-19)
(1.1479 -0.560568 -1.90745e-19)
(1.24405 -0.571725 1.89372e-19)
(1.3428 -0.580635 -1.88e-19)
(1.44375 -0.587233 0)
(1.54641 -0.591493 0)
(1.65043 -0.593421 -1.83844e-19)
(1.75531 -0.593057 0)
(1.86066 -0.590502 0)
(1.96606 -0.585864 -1.79682e-19)
(2.07114 -0.579287 -1.78323e-19)
(2.17558 -0.570926 -1.76926e-19)
(2.27907 -0.560954 0)
(2.3813 -0.549553 0)
(2.48198 -0.536906 1.72712e-19)
(2.58094 -0.523186 0)
(2.67801 -0.508563 0)
(2.773 -0.493209 -1.68441e-19)
(2.86575 -0.477287 1.67082e-19)
(2.95616 -0.460939 -1.65662e-19)
(3.04417 -0.444289 0)
(3.12973 -0.427463 0)
(3.21275 -0.410581 -3.22762e-19)
(3.29321 -0.393739 0)
(3.3711 -0.377015 -3.171e-19)
(3.44644 -0.360481 -4.71397e-19)
(3.51922 -0.344208 4.67171e-19)
(3.58944 -0.328257 -3.08645e-19)
(3.65714 -0.31267 0)
(3.72237 -0.297478 0)
(3.78517 -0.282712 -3.00257e-19)
(3.84556 -0.2684 -1.48731e-19)
(3.9036 -0.254565 0)
(3.95935 -0.241214 0)
(4.01286 -0.228352 -1.44601e-19)
(4.06419 -0.215982 -2.86482e-19)
(4.11339 -0.20411 0)
(4.16053 -0.192735 2.8105e-19)
(4.20566 -0.18185 -2.78366e-19)
(4.24885 -0.171443 2.75688e-19)
(4.29016 -0.161505 0)
(4.32965 -0.152029 0)
(4.36737 -0.143006 0)
(4.40339 -0.134423 0)
(4.43778 -0.126261 0)
(4.47058 -0.118506 2.59928e-19)
(4.50186 -0.111144 0)
(4.53167 -0.104165 0)
(4.56006 -0.097554 0)
(4.5871 -0.0912938 4.99467e-19)
(4.61283 -0.0853675 2.47225e-19)
(4.63732 -0.0797607 2.44732e-19)
(4.66059 -0.0744606 -4.84509e-19)
(4.68272 -0.0694543 2.39793e-19)
(4.70373 -0.0647283 -2.37349e-19)
(4.72369 -0.0602687 0)
(4.74264 -0.0560624 2.32508e-19)
(4.76062 -0.0520965 0)
(4.77766 -0.0483587 0)
(4.79382 -0.0448382 0)
(4.80913 -0.0415243 4.46037e-19)
(4.82363 -0.038409 -2.20685e-19)
(4.83736 -0.035481 -2.18367e-19)
(4.85035 -0.0327326 -4.32137e-19)
(4.86264 -0.0301473 -6.41352e-19)
(4.87426 -0.0277143 -2.11516e-19)
(4.88525 -0.0254276 0)
(4.89563 -0.0232804 -4.14046e-19)
(4.90544 -0.021267 0)
(4.91469 -0.0193799 -6.07782e-19)
(4.92343 -0.0176121 0)
(4.93167 -0.015955 -5.94676e-19)