/*--------------------------------*- C++ -*----------------------------------*\
| =========                 |                                                 |
| \\      /  F ield         | OpenFOAM: The Open Source CFD Toolbox           |
|  \\    /   O peration     | Version:  2.1.x                                 |
|   \\  /    A nd           | Web:      www.OpenFOAM.org                      |
|    \\/     M anipulation  |                                                 |
\*---------------------------------------------------------------------------*/
FoamFile
{
    version     2.0;
    format      ascii;
    class       volSymmTensorField;
    location    "0.004";
    object      UPrime2Mean;
}
// * * * * * * * * * * * * * * * * * * * * * * * * * * * * * * * * * * * * * //

dimensions      [0 2 -2 0 0 0 0];

internalField   nonuniform List<symmTensor> 
12225
(
(0.192808 0.00431027 0 0.00543333 0 0)
(1.44204 -0.0267896 0 0.00131622 0 0)
(2.09863 -0.00866235 0 0.000115305 0 0)
(2.51484 -0.003127 0 2.34275e-05 0 0)
(2.88185 -0.00256319 0 3.11331e-05 0 0)
(3.06987 -0.00310507 0 4.50519e-05 0 0)
(3.28714 -0.00641386 0 0.000119381 0 0)
(3.35097 -0.00811903 0 0.000228472 0 0)
(3.54767 -0.00967109 0 0.000374338 0 0)
(3.6583 -0.0133745 0 0.000538522 0 0)
(3.82587 -0.0131561 0 0.000725715 0 0)
(4.10897 -0.0218369 0 0.00107503 0 0)
(4.26326 -0.0335968 0 0.00162304 0 0)
(4.85618 -0.000892918 0 0.00244701 0 0)
(5.4107 -0.211947 0 0.0153161 0 0)
(6.47196 0.346494 0 0.0458416 0 0)
(10.3184 -1.81203 0 0.468957 0 0)
(16.8172 1.31976 0 0.267178 0 0)
(0.490904 0.116296 0 0.0473423 0 0)
(0.401789 -0.0617237 0 0.0374108 0 0)
(0.72612 -0.0742826 0 0.0131321 0 0)
(1.0401 -0.0668779 0 0.00568263 0 0)
(1.58053 -0.0606086 0 0.00325565 0 0)
(1.90655 -0.0447973 0 0.00207976 0 0)
(2.48161 -0.0410268 0 0.00271372 0 0)
(2.6146 -0.0328478 0 0.00242718 0 0)
(2.89045 -0.0460286 0 0.00329026 0 0)
(3.39533 -0.0376902 0 0.00420155 0 0)
(3.04183 -0.0630332 0 0.006306 0 0)
(4.42335 -0.105115 0 0.0126641 0 0)
(3.38348 -0.0703414 0 0.0186049 0 0)
(5.81689 -0.300038 0 0.047687 0 0)
(4.57851 -0.0898194 0 0.068485 0 0)
(8.39637 -0.787227 0 0.203925 0 0)
(8.3442 -0.929258 0 0.249495 0 0)
(14.5112 -3.07028 0 1.1015 0 0)
(0.590956 0.106006 0 0.0299658 0 0)
(0.294245 0.020141 0 0.0464483 0 0)
(0.31579 -0.000961741 0 0.0261703 0 0)
(0.300703 -0.01255 0 0.0189101 0 0)
(0.404083 -0.0419815 0 0.0152333 0 0)
(0.484996 -0.0423863 0 0.0117424 0 0)
(0.800077 -0.0730167 0 0.0169549 0 0)
(0.864081 -0.0568967 0 0.0139067 0 0)
(1.18553 -0.0926831 0 0.0186884 0 0)
(1.3879 -0.0840744 0 0.0273361 0 0)
(1.5549 -0.138219 0 0.0445335 0 0)
(1.94104 -0.18222 0 0.073128 0 0)
(2.08705 -0.246384 0 0.11435 0 0)
(2.67145 -0.350559 0 0.162567 0 0)
(2.9414 -0.444471 0 0.239029 0 0)
(3.95617 -0.805118 0 0.398764 0 0)
(4.29519 -1.05134 0 0.505735 0 0)
(6.03467 -2.85274 0 2.31248 0 0)
(0.572112 0.0714485 0 0.0201233 0 0)
(0.327654 0.0175716 0 0.0442939 0 0)
(0.345528 0.0287956 0 0.0286737 0 0)
(0.384648 0.0401145 0 0.0230211 0 0)
(0.38813 0.0192137 0 0.0258004 0 0)
(0.371406 0.0033936 0 0.0317571 0 0)
(0.359434 -0.0250554 0 0.0457843 0 0)
(0.359714 -0.0344574 0 0.0426654 0 0)
(0.421942 -0.0720667 0 0.0562708 0 0)
(0.47544 -0.0949906 0 0.0701025 0 0)
(0.606194 -0.139467 0 0.10047 0 0)
(0.671558 -0.170488 0 0.137152 0 0)
(0.874735 -0.232375 0 0.185344 0 0)
(0.993721 -0.27271 0 0.237804 0 0)
(1.3272 -0.433282 0 0.375244 0 0)
(1.43787 -0.471644 0 0.435227 0 0)
(1.83969 -0.947001 0 0.89209 0 0)
(1.99401 -1.36883 0 1.61383 0 0)
(0.56761 0.0691953 0 0.016435 0 0)
(0.303001 0.0140753 0 0.0340777 0 0)
(0.332486 0.0283316 0 0.0343401 0 0)
(0.379596 0.039045 0 0.0334537 0 0)
(0.386126 0.0344112 0 0.044807 0 0)
(0.387003 0.0154224 0 0.0474864 0 0)
(0.377004 0.0126596 0 0.0596286 0 0)
(0.374147 -0.00209715 0 0.072858 0 0)
(0.389338 -0.0258631 0 0.0727535 0 0)
(0.390928 -0.0404879 0 0.0925323 0 0)
(0.40396 -0.0596517 0 0.103744 0 0)
(0.445925 -0.0866499 0 0.141838 0 0)
(0.507882 -0.118414 0 0.178068 0 0)
(0.593307 -0.194513 0 0.265326 0 0)
(0.693368 -0.242271 0 0.312779 0 0)
(0.825891 -0.413138 0 0.560787 0 0)
(0.991189 -0.632058 0 0.864628 0 0)
(1.08192 -0.93654 0 1.60134 0 0)
(0.560611 0.047469 0 0.0098678 0 0)
(0.284794 0.00182764 0 0.0281327 0 0)
(0.309734 0.0133118 0 0.0301332 0 0)
(0.344654 0.0337958 0 0.0222801 0 0)
(0.371708 0.0319116 0 0.0246807 0 0)
(0.366406 0.0244352 0 0.0289427 0 0)
(0.352313 0.0239409 0 0.0434069 0 0)
(0.359659 0.00873575 0 0.0418536 0 0)
(0.362226 0.00425608 0 0.0549337 0 0)
(0.355414 -0.00754359 0 0.0607162 0 0)
(0.358211 -0.0192903 0 0.0840403 0 0)
(0.376049 -0.0347283 0 0.113914 0 0)
(0.400239 -0.0667058 0 0.165607 0 0)
(0.428629 -0.0970594 0 0.214464 0 0)
(0.488645 -0.172415 0 0.339669 0 0)
(0.571847 -0.293747 0 0.522986 0 0)
(0.677276 -0.472742 0 0.823229 0 0)
(0.782909 -0.684569 0 1.59931 0 0)
(0.567854 0.042707 0 0.00798599 0 0)
(0.285248 -0.000183706 0 0.0180096 0 0)
(0.295747 0.00618677 0 0.0252422 0 0)
(0.308571 0.0201034 0 0.0255328 0 0)
(0.321868 0.0256661 0 0.0288935 0 0)
(0.317313 0.0137727 0 0.0292287 0 0)
(0.316211 0.00990491 0 0.0349905 0 0)
(0.321422 0.0083998 0 0.0451596 0 0)
(0.323919 -0.00210415 0 0.0459155 0 0)
(0.322484 -0.00906323 0 0.0600402 0 0)
(0.329441 -0.015242 0 0.0664131 0 0)
(0.346598 -0.0326685 0 0.0879222 0 0)
(0.377125 -0.0584271 0 0.114081 0 0)
(0.407047 -0.0975789 0 0.176883 0 0)
(0.459404 -0.155303 0 0.247864 0 0)
(0.514742 -0.237023 0 0.408044 0 0)
(0.569724 -0.34533 0 0.721746 0 0)
(0.598021 -0.451004 0 1.3085 0 0)
(0.609129 0.045469 0 0.0108971 0 0)
(0.282991 -0.000258389 0 0.0175389 0 0)
(0.291206 0.00919119 0 0.0254739 0 0)
(0.307501 0.0221787 0 0.0225276 0 0)
(0.323155 0.0219032 0 0.0198527 0 0)
(0.31941 0.0164215 0 0.0207555 0 0)
(0.312261 0.0147218 0 0.0247077 0 0)
(0.313832 0.00690152 0 0.0262292 0 0)
(0.319319 -0.00143022 0 0.0331524 0 0)
(0.317978 -0.00670496 0 0.0425244 0 0)
(0.319019 -0.0155553 0 0.0541143 0 0)
(0.330287 -0.0279844 0 0.0756118 0 0)
(0.350349 -0.0513486 0 0.106908 0 0)
(0.369761 -0.083767 0 0.158729 0 0)
(0.3999 -0.126704 0 0.241294 0 0)
(0.426067 -0.178974 0 0.395148 0 0)
(0.452718 -0.244557 0 0.610884 0 0)
(0.492056 -0.29464 0 1.00243 0 0)
(0.543492 0.0290876 0 0.00880238 0 0)
(0.284669 -0.00710905 0 0.0148772 0 0)
(0.292981 -0.00157495 0 0.0211137 0 0)
(0.29403 0.00927305 0 0.0240144 0 0)
(0.299626 0.0126231 0 0.0217757 0 0)
(0.294495 0.005266 0 0.0197005 0 0)
(0.291406 0.00129248 0 0.0231628 0 0)
(0.293752 -0.002171 0 0.0289697 0 0)
(0.301963 -0.00977464 0 0.0341474 0 0)
(0.306625 -0.0184387 0 0.0443952 0 0)
(0.315074 -0.0279091 0 0.0589949 0 0)
(0.322208 -0.0397455 0 0.0794519 0 0)
(0.336755 -0.0623051 0 0.111252 0 0)
(0.35011 -0.0890553 0 0.170093 0 0)
(0.367903 -0.124045 0 0.251554 0 0)
(0.380999 -0.160672 0 0.37519 0 0)
(0.410425 -0.198747 0 0.564086 0 0)
(0.478767 -0.210916 0 0.880602 0 0)
(0.572936 0.0274099 0 0.00802732 0 0)
(0.284598 -0.00789822 0 0.0120172 0 0)
(0.287549 -0.00462491 0 0.0187622 0 0)
(0.287957 0.00503134 0 0.0204633 0 0)
(0.295465 0.00889511 0 0.0183729 0 0)
(0.293507 0.00251508 0 0.0185779 0 0)
(0.290644 -0.00297346 0 0.0224907 0 0)
(0.290796 -0.00786083 0 0.0265004 0 0)
(0.296729 -0.0139223 0 0.0320721 0 0)
(0.300245 -0.0204711 0 0.0444482 0 0)
(0.308781 -0.0321093 0 0.0605546 0 0)
(0.320316 -0.0463073 0 0.0857632 0 0)
(0.336289 -0.0649482 0 0.12069 0 0)
(0.342381 -0.0856587 0 0.17836 0 0)
(0.34991 -0.112657 0 0.255857 0 0)
(0.358285 -0.13642 0 0.376959 0 0)
(0.372126 -0.159903 0 0.540118 0 0)
(0.412732 -0.166288 0 0.800667 0 0)
(0.589617 0.0229227 0 0.0114398 0 0)
(0.288861 -0.00529127 0 0.0121367 0 0)
(0.294128 -0.00114363 0 0.0160065 0 0)
(0.29128 0.00915239 0 0.0191429 0 0)
(0.290419 0.0109979 0 0.0202882 0 0)
(0.287703 0.00530783 0 0.020244 0 0)
(0.285765 -0.00114638 0 0.0228412 0 0)
(0.287759 -0.00637535 0 0.0287912 0 0)
(0.292782 -0.0131536 0 0.0370036 0 0)
(0.296281 -0.0217854 0 0.0478875 0 0)
(0.302715 -0.0331113 0 0.0634112 0 0)
(0.30855 -0.0446406 0 0.0890136 0 0)
(0.317208 -0.0616291 0 0.123067 0 0)
(0.32281 -0.078421 0 0.178038 0 0)
(0.330821 -0.0952111 0 0.249683 0 0)
(0.331813 -0.104511 0 0.348975 0 0)
(0.33452 -0.114627 0 0.47763 0 0)
(0.369434 -0.116504 0 0.701319 0 0)
(0.602893 0.0267716 0 0.00755425 0 0)
(0.272882 -0.00738891 0 0.0109423 0 0)
(0.26969 -0.00453795 0 0.0153403 0 0)
(0.266468 0.00228406 0 0.0184573 0 0)
(0.271189 0.00276255 0 0.0210659 0 0)
(0.273238 -0.00184107 0 0.0230636 0 0)
(0.274449 -0.00662458 0 0.0271283 0 0)
(0.278813 -0.0110947 0 0.0335172 0 0)
(0.284702 -0.0180107 0 0.0420912 0 0)
(0.288194 -0.0262089 0 0.0553285 0 0)
(0.292516 -0.0368593 0 0.0733499 0 0)
(0.296837 -0.0469205 0 0.098906 0 0)
(0.304484 -0.0580298 0 0.131028 0 0)
(0.307064 -0.0668543 0 0.178629 0 0)
(0.308381 -0.0758137 0 0.237951 0 0)
(0.309745 -0.0768003 0 0.318718 0 0)
(0.314246 -0.0757173 0 0.430936 0 0)
(0.330701 -0.063871 0 0.633844 0 0)
(0.560714 0.0268468 0 0.008556 0 0)
(0.275398 -0.0104 0 0.0121175 0 0)
(0.275654 -0.00813622 0 0.0165442 0 0)
(0.267603 0.000188045 0 0.0202751 0 0)
(0.267733 0.00136315 0 0.023548 0 0)
(0.269429 -0.00268959 0 0.02613 0 0)
(0.271884 -0.00634273 0 0.0298567 0 0)
(0.27446 -0.00933639 0 0.0351478 0 0)
(0.277188 -0.0131527 0 0.0440563 0 0)
(0.279133 -0.0177649 0 0.0576911 0 0)
(0.28232 -0.0246069 0 0.0749408 0 0)
(0.284238 -0.0308035 0 0.0992822 0 0)
(0.287233 -0.0374009 0 0.129368 0 0)
(0.288901 -0.0395698 0 0.17105 0 0)
(0.291101 -0.0383303 0 0.222747 0 0)
(0.292941 -0.0299337 0 0.288311 0 0)
(0.295391 -0.0209123 0 0.363359 0 0)
(0.316056 0.00427491 0 0.503809 0 0)
(0.612388 0.0362876 0 0.0125597 0 0)
(0.287121 -0.00831216 0 0.0137621 0 0)
(0.278131 -0.00613805 0 0.0160536 0 0)
(0.265221 0.000733942 0 0.0190048 0 0)
(0.266701 0.00173052 0 0.022573 0 0)
(0.273185 -0.00207379 0 0.026282 0 0)
(0.278318 -0.0056476 0 0.0318537 0 0)
(0.281349 -0.00840984 0 0.0391614 0 0)
(0.281616 -0.0117913 0 0.0492719 0 0)
(0.279682 -0.0156438 0 0.0624796 0 0)
(0.278832 -0.0206996 0 0.0787537 0 0)
(0.279722 -0.0233721 0 0.100211 0 0)
(0.284369 -0.0239309 0 0.126372 0 0)
(0.28692 -0.0189992 0 0.159302 0 0)
(0.287444 -0.0119513 0 0.197773 0 0)
(0.289715 0.0024299 0 0.244081 0 0)
(0.294294 0.0192858 0 0.302098 0 0)
(0.311216 0.0471775 0 0.443195 0 0)
(0.53941 0.0303761 0 0.0125885 0 0)
(0.290195 -0.0131398 0 0.0142717 0 0)
(0.289982 -0.0124357 0 0.0158709 0 0)
(0.273603 -0.00458241 0 0.0188072 0 0)
(0.266433 -0.0022749 0 0.0231785 0 0)
(0.265393 -0.0054028 0 0.0278196 0 0)
(0.269318 -0.00914835 0 0.0338024 0 0)
(0.273849 -0.0117236 0 0.0400728 0 0)
(0.277398 -0.0131304 0 0.0479598 0 0)
(0.277998 -0.0135563 0 0.0582642 0 0)
(0.27827 -0.0141603 0 0.0716021 0 0)
(0.278399 -0.0129576 0 0.0876667 0 0)
(0.279724 -0.0105342 0 0.10681 0 0)
(0.282345 -0.00404641 0 0.130738 0 0)
(0.28602 0.00433125 0 0.158304 0 0)
(0.292444 0.0186547 0 0.191443 0 0)
(0.30067 0.0352928 0 0.234229 0 0)
(0.320044 0.0630233 0 0.334916 0 0)
(0.507647 0.017772 0 0.0133041 0 0)
(0.293328 -0.00682298 0 0.0142003 0 0)
(0.300755 -0.0101577 0 0.0138684 0 0)
(0.283788 -0.00649846 0 0.015578 0 0)
(0.272473 -0.0045027 0 0.0192003 0 0)
(0.265256 -0.00574434 0 0.0231894 0 0)
(0.2641 -0.00871039 0 0.0285731 0 0)
(0.266686 -0.0111167 0 0.0349596 0 0)
(0.272199 -0.012862 0 0.0433099 0 0)
(0.275959 -0.0135127 0 0.0535051 0 0)
(0.276745 -0.0145632 0 0.0655134 0 0)
(0.274507 -0.0139811 0 0.0787938 0 0)
(0.272745 -0.0117978 0 0.0926114 0 0)
(0.272991 -0.00575837 0 0.107873 0 0)
(0.274787 0.000170511 0 0.123111 0 0)
(0.280291 0.00879582 0 0.141338 0 0)
(0.287796 0.0193094 0 0.165267 0 0)
(0.303827 0.0411298 0 0.213875 0 0)
(0.581265 0.0117117 0 0.0105622 0 0)
(0.277339 -0.00523098 0 0.010604 0 0)
(0.273174 -0.00413933 0 0.0121163 0 0)
(0.266618 0.00116956 0 0.014742 0 0)
(0.265981 0.00255967 0 0.0184706 0 0)
(0.264897 0.000335471 0 0.0230141 0 0)
(0.26337 -0.00176567 0 0.0289631 0 0)
(0.263065 -0.00194276 0 0.0355468 0 0)
(0.265006 -0.000642691 0 0.0432081 0 0)
(0.267467 0.000988722 0 0.0509332 0 0)
(0.2688 0.00155885 0 0.0590994 0 0)
(0.268219 0.00212638 0 0.0669676 0 0)
(0.267914 0.00344224 0 0.0738955 0 0)
(0.269334 0.00684976 0 0.0806473 0 0)
(0.272059 0.0109282 0 0.0874128 0 0)
(0.276692 0.0160326 0 0.0948588 0 0)
(0.281299 0.0203547 0 0.0999657 0 0)
(0.291507 0.0290788 0 0.110298 0 0)
(0.596578 0.026737 0 0.0110133 0 0)
(0.287 -0.00496463 0 0.013038 0 0)
(0.273783 -0.00366177 0 0.0148975 0 0)
(0.266892 0.00241247 0 0.0162196 0 0)
(0.270756 0.0053435 0 0.019127 0 0)
(0.27461 0.00532637 0 0.0231776 0 0)
(0.276356 0.00590543 0 0.0283943 0 0)
(0.277267 0.00828076 0 0.0339255 0 0)
(0.278737 0.0128568 0 0.0402969 0 0)
(0.282145 0.0184931 0 0.0468106 0 0)
(0.288452 0.0240823 0 0.0538362 0 0)
(0.296654 0.0293369 0 0.0607011 0 0)
(0.306509 0.035184 0 0.0668929 0 0)
(0.317644 0.0422542 0 0.0721939 0 0)
(0.327602 0.0490967 0 0.0761962 0 0)
(0.335943 0.0546336 0 0.0792861 0 0)
(0.342513 0.0587622 0 0.0815449 0 0)
(0.352085 0.0625575 0 0.082335 0 0)
(0.616192 0.0309461 0 0.0153855 0 0)
(0.286743 -0.00221235 0 0.0138649 0 0)
(0.272763 -0.00513806 0 0.0123245 0 0)
(0.271787 0.000720454 0 0.0118533 0 0)
(0.279588 0.00425148 0 0.0129192 0 0)
(0.285944 0.00426812 0 0.0145817 0 0)
(0.288965 0.00420251 0 0.0171605 0 0)
(0.289372 0.00551107 0 0.020154 0 0)
(0.289635 0.0090711 0 0.024049 0 0)
(0.292491 0.0138563 0 0.0281333 0 0)
(0.299364 0.0191651 0 0.0325755 0 0)
(0.309431 0.0244826 0 0.0370962 0 0)
(0.321584 0.0302797 0 0.0415049 0 0)
(0.334792 0.0370835 0 0.0456793 0 0)
(0.346458 0.0435784 0 0.0489083 0 0)
(0.357146 0.0491382 0 0.051171 0 0)
(0.365309 0.052865 0 0.0521781 0 0)
(0.37664 0.0563578 0 0.0526001 0 0)
(0.56873 0.021808 0 0.0125415 0 0)
(0.280377 -0.0111561 0 0.0120464 0 0)
(0.286491 -0.0113843 0 0.0111017 0 0)
(0.277034 -0.00479005 0 0.0103527 0 0)
(0.271069 -0.000903418 0 0.010866 0 0)
(0.267754 -0.000397037 0 0.0120367 0 0)
(0.269618 -0.000648284 0 0.0140608 0 0)
(0.274848 0.000113708 0 0.016383 0 0)
(0.282011 0.00260059 0 0.0191911 0 0)
(0.288479 0.00586268 0 0.0216986 0 0)
(0.292876 0.00901541 0 0.0240262 0 0)
(0.296534 0.0118079 0 0.0264562 0 0)
(0.302135 0.0150503 0 0.0291005 0 0)
(0.311801 0.0190806 0 0.0320338 0 0)
(0.323483 0.0235472 0 0.0347241 0 0)
(0.335285 0.0277606 0 0.0371194 0 0)
(0.345149 0.0314566 0 0.0388346 0 0)
(0.355831 0.0351699 0 0.040028 0 0)
(0.529507 0.00603641 0 0.00901815 0 0)
(0.283104 -0.0044493 0 0.00642056 0 0)
(0.288192 -0.00628353 0 0.00410905 0 0)
(0.278718 -0.00636805 0 0.00329195 0 0)
(0.276162 -0.00510422 0 0.00368067 0 0)
(0.27851 -0.00316995 0 0.00461288 0 0)
(0.286408 -0.000715005 0 0.0060501 0 0)
(0.297499 0.0017356 0 0.00755084 0 0)
(0.308992 0.00426495 0 0.00914136 0 0)
(0.318735 0.00656593 0 0.0105131 0 0)
(0.326975 0.00933449 0 0.0118796 0 0)
(0.335607 0.0126406 0 0.0133553 0 0)
(0.347032 0.0170408 0 0.0149518 0 0)
(0.361578 0.0216509 0 0.0165051 0 0)
(0.376447 0.0256321 0 0.01764 0 0)
(0.389118 0.0282079 0 0.0184432 0 0)
(0.399429 0.029825 0 0.0187913 0 0)
(0.410955 0.0315928 0 0.0190734 0 0)
(0.592427 -0.00208146 0 0.00796508 0 0)
(0.266524 -0.00305888 0 0.0050695 0 0)
(0.26534 -0.00579615 0 0.00280037 0 0)
(0.268384 -0.00841751 0 0.00201397 0 0)
(0.280249 -0.00776153 0 0.00176027 0 0)
(0.291792 -0.0053053 0 0.00176647 0 0)
(0.301054 -0.00203926 0 0.00227188 0 0)
(0.308436 0.000869903 0 0.00313502 0 0)
(0.316528 0.00374878 0 0.0042011 0 0)
(0.326647 0.00647016 0 0.00515537 0 0)
(0.339526 0.00993507 0 0.0061964 0 0)
(0.354145 0.0137619 0 0.00729877 0 0)
(0.370432 0.0182152 0 0.00854218 0 0)
(0.386845 0.0223101 0 0.00970675 0 0)
(0.401885 0.0258815 0 0.0107263 0 0)
(0.414028 0.028596 0 0.0116305 0 0)
(0.42504 0.0310658 0 0.0124022 0 0)
(0.437527 0.0337954 0 0.0131794 0 0)
(0.643841 0.00216984 0 0.0114186 0 0)
(0.280828 -0.00762518 0 0.00620487 0 0)
(0.27741 -0.0114886 0 0.00342827 0 0)
(0.300088 -0.0153048 0 0.00247448 0 0)
(0.32983 -0.0142779 0 0.00204299 0 0)
(0.34986 -0.0112623 0 0.0020023 0 0)
(0.360167 -0.0080846 0 0.00212515 0 0)
(0.367084 -0.00575756 0 0.00207217 0 0)
(0.378328 -0.00324213 0 0.00200626 0 0)
(0.396637 -0.000590457 0 0.00208048 0 0)
(0.420835 0.00298152 0 0.00243673 0 0)
(0.44634 0.00683752 0 0.00301628 0 0)
(0.470682 0.01118 0 0.0037399 0 0)
(0.491689 0.0150272 0 0.00440284 0 0)
(0.509431 0.0184909 0 0.00496028 0 0)
(0.524277 0.0213872 0 0.00547364 0 0)
(0.539129 0.0241156 0 0.00595023 0 0)
(0.55664 0.0271048 0 0.00650035 0 0)
(0.593485 -0.00218597 0 0.00683364 0 0)
(0.281658 -0.00865143 0 0.00582052 0 0)
(0.278785 -0.0126218 0 0.00590409 0 0)
(0.299162 -0.0185593 0 0.00505619 0 0)
(0.329079 -0.0193293 0 0.00360249 0 0)
(0.353039 -0.0177371 0 0.00261447 0 0)
(0.370332 -0.0157666 0 0.00239124 0 0)
(0.383982 -0.0139979 0 0.00260057 0 0)
(0.398735 -0.0113978 0 0.00281442 0 0)
(0.416008 -0.00837298 0 0.0028867 0 0)
(0.435704 -0.00453515 0 0.0028313 0 0)
(0.455682 -0.000613603 0 0.00277619 0 0)
(0.475274 0.00345395 0 0.00290426 0 0)
(0.493269 0.00693037 0 0.00328469 0 0)
(0.508762 0.0101789 0 0.00383306 0 0)
(0.521413 0.0132054 0 0.00437652 0 0)
(0.533201 0.0163916 0 0.00485241 0 0)
(0.546782 0.0197253 0 0.00522003 0 0)
(0.580484 -0.00979086 0 0.00465215 0 0)
(0.272599 -0.00534621 0 0.00690722 0 0)
(0.281086 -0.0150416 0 0.00920739 0 0)
(0.317066 -0.0266614 0 0.00858023 0 0)
(0.356213 -0.0286491 0 0.00622501 0 0)
(0.382436 -0.0263339 0 0.00415267 0 0)
(0.400161 -0.0235214 0 0.00281736 0 0)
(0.416344 -0.020756 0 0.00206156 0 0)
(0.435826 -0.0173841 0 0.00156457 0 0)
(0.458654 -0.0137397 0 0.00128687 0 0)
(0.484019 -0.00961853 0 0.00106828 0 0)
(0.509068 -0.00584846 0 0.000916924 0 0)
(0.533873 -0.00228444 0 0.000827314 0 0)
(0.557127 0.000493401 0 0.000882955 0 0)
(0.57936 0.00317004 0 0.00113656 0 0)
(0.599188 0.00607543 0 0.00150513 0 0)
(0.618494 0.00970424 0 0.00193275 0 0)
(0.637062 0.0139817 0 0.00229037 0 0)
(0.521875 -0.0266721 0 0.00794447 0 0)
(0.27629 -0.00577151 0 0.0143219 0 0)
(0.295762 -0.0180296 0 0.0176574 0 0)
(0.340719 -0.0337825 0 0.014981 0 0)
(0.384748 -0.0384637 0 0.0113452 0 0)
(0.412024 -0.0380833 0 0.0096142 0 0)
(0.431404 -0.0357627 0 0.00897904 0 0)
(0.450846 -0.031646 0 0.00839647 0 0)
(0.473587 -0.0265065 0 0.00718708 0 0)
(0.49863 -0.0218145 0 0.00562392 0 0)
(0.523675 -0.0177838 0 0.00409452 0 0)
(0.546472 -0.0147983 0 0.00305429 0 0)
(0.567116 -0.0120929 0 0.00253596 0 0)
(0.586247 -0.00969226 0 0.00259843 0 0)
(0.60437 -0.00689534 0 0.00288703 0 0)
(0.621945 -0.00356501 0 0.00307804 0 0)
(0.639099 0.000714244 0 0.00303772 0 0)
(0.656446 0.00540125 0 0.00265947 0 0)
(0.593715 -0.0452163 0 0.00757349 0 0)
(0.275517 -0.0162132 0 0.0216629 0 0)
(0.31161 -0.0381483 0 0.0276274 0 0)
(0.395031 -0.0578728 0 0.0235615 0 0)
(0.456595 -0.0634366 0 0.0201819 0 0)
(0.479511 -0.0614729 0 0.0179524 0 0)
(0.48331 -0.0549607 0 0.0159018 0 0)
(0.480555 -0.045015 0 0.0133082 0 0)
(0.479008 -0.0352679 0 0.0103094 0 0)
(0.478505 -0.0274132 0 0.00748304 0 0)
(0.479854 -0.0222172 0 0.00531296 0 0)
(0.479392 -0.0185128 0 0.004018 0 0)
(0.479051 -0.015425 0 0.00338948 0 0)
(0.477254 -0.0124239 0 0.00331954 0 0)
(0.476368 -0.00951023 0 0.00335875 0 0)
(0.474979 -0.00645554 0 0.00332544 0 0)
(0.474921 -0.00320654 0 0.00300422 0 0)
(0.474613 0.000136635 0 0.00246853 0 0)
(0.559517 -0.0520553 0 0.0131376 0 0)
(0.285652 -0.0217471 0 0.0386537 0 0)
(0.320208 -0.0386769 0 0.038311 0 0)
(0.352094 -0.0447737 0 0.0285608 0 0)
(0.332189 -0.0339844 0 0.0244645 0 0)
(0.294735 -0.01707 0 0.0222179 0 0)
(0.271622 -0.00139218 0 0.0193397 0 0)
(0.267184 0.0101329 0 0.0154701 0 0)
(0.273835 0.0156697 0 0.0115299 0 0)
(0.287747 0.0181224 0 0.00837905 0 0)
(0.301575 0.0181985 0 0.0060459 0 0)
(0.317529 0.0184848 0 0.00479505 0 0)
(0.331682 0.0182738 0 0.00410797 0 0)
(0.346308 0.0182707 0 0.00387949 0 0)
(0.358585 0.0176419 0 0.00367417 0 0)
(0.368919 0.0166619 0 0.00343872 0 0)
(0.374621 0.0152316 0 0.00305666 0 0)
(0.376414 0.0138527 0 0.00264632 0 0)
(0.570833 -0.104388 0 0.0314399 0 0)
(0.275991 0.0127487 0 0.060381 0 0)
(0.33665 0.0456049 0 0.0439225 0 0)
(0.416739 0.0636941 0 0.026922 0 0)
(0.6079 0.0781662 0 0.0172012 0 0)
(0.893357 0.0763571 0 0.0111155 0 0)
(1.19588 0.0618961 0 0.00690514 0 0)
(1.46461 0.0444365 0 0.00399441 0 0)
(1.67248 0.0310027 0 0.00222298 0 0)
(1.83782 0.0223443 0 0.00130114 0 0)
(1.94967 0.0179313 0 0.000811607 0 0)
(2.04311 0.0161237 0 0.000673384 0 0)
(2.10174 0.0149552 0 0.000597725 0 0)
(2.14793 0.0156868 0 0.000688647 0 0)
(2.18037 0.0148851 0 0.000707641 0 0)
(2.1899 0.0149792 0 0.0007475 0 0)
(2.20335 0.0167222 0 0.000821219 0 0)
(2.18449 0.0171542 0 0.000820954 0 0)
(0.305023 -0.0192022 0 0.00935161 0 0)
(1.03211 0.0552856 0 0.00558859 0 0)
(1.83026 0.0324154 0 0.0012881 0 0)
(2.46469 0.00912702 0 0.000159507 0 0)
(3.03381 -0.00515399 0 6.65635e-05 0 0)
(3.42791 -0.0131152 0 0.000100439 0 0)
(3.65117 -0.0135024 0 8.28017e-05 0 0)
(3.76616 -0.00932231 0 6.22572e-05 0 0)
(3.82739 -0.00402002 0 6.31741e-05 0 0)
(3.86708 0.000624467 0 7.58738e-05 0 0)
(3.89474 0.00391358 0 9.35977e-05 0 0)
(3.92047 0.00598848 0 0.000116855 0 0)
(3.94007 0.00713285 0 0.000136707 0 0)
(3.95902 0.00792376 0 0.000169092 0 0)
(3.98189 0.00797063 0 0.000163273 0 0)
(3.97902 0.010226 0 0.00024854 0 0)
(4.03861 0.0121822 0 0.000207942 0 0)
(3.98239 0.0146647 0 0.00040269 0 0)
(0.000922586 -0.00189945 0 0.0039143 0 0)
(0.00769452 -0.00531485 0 0.00367675 0 0)
(0.0204694 -0.0085079 0 0.003539 0 0)
(0.0396626 -0.0116747 0 0.0034383 0 0)
(0.0647507 -0.0146444 0 0.00331361 0 0)
(0.0956246 -0.0173859 0 0.00316256 0 0)
(0.131693 -0.0198343 2.54873e-20 0.00298901 -3.7661e-21 2.4828e-36)
(0.172454 -0.0219273 -2.88168e-20 0.00279014 3.59161e-21 2.4455e-36)
(0.217231 -0.0236258 0 0.00257208 0 0)
(0.265293 -0.0249077 -3.49191e-20 0.00234166 3.20353e-21 2.37199e-36)
(0.315773 -0.0257588 0 0.00210507 0 0)
(0.367497 -0.0261316 0 0.00186269 0 0)
(0.419791 -0.0260236 0 0.0016185 0 0)
(0.471659 -0.0254749 4.45155e-20 0.00138188 -2.32967e-21 2.22921e-36)
(0.522172 -0.0244926 0 0.00115539 0 0)
(0.570152 -0.0231355 0 0.000945902 0 0)
(0.61483 -0.0213904 -4.91931e-20 0.000751691 1.65762e-21 2.12582e-36)
(0.655613 -0.0194127 0 0.000582726 0 0)
(0.691687 -0.0171724 0 0.000434525 0 0)
(0.722714 -0.0148123 0 0.000312128 0 0)
(0.748312 -0.012354 5.20873e-20 0.00021289 -8.5965e-22 1.99285e-36)
(0.768203 -0.00989217 0 0.000136863 0 0)
(0.782177 -0.00751703 5.22484e-20 8.24995e-05 -5.35006e-22 1.92846e-36)
(0.790607 -0.0052134 0 4.55781e-05 0 0)
(0.793619 -0.00307739 0 2.43454e-05 0 0)
(0.791553 -0.00116404 5.11958e-20 1.55952e-05 -1.60672e-22 1.8345e-36)
(0.784842 0.000504779 0 1.58939e-05 0 0)
(0.773922 0.00192951 -4.98231e-20 2.22494e-05 -9.93348e-24 1.77361e-36)
(0.759415 0.00309553 0 3.1988e-05 0 0)
(0.741913 0.00400409 4.80705e-20 4.29034e-05 1.20942e-22 1.71412e-36)
(0.721997 0.00465943 0 5.32513e-05 0 0)
(0.700151 0.00507844 0 6.17763e-05 0 0)
(0.676903 0.00528712 0 6.7685e-05 0 0)
(0.65284 0.00530986 0 7.06243e-05 0 0)
(0.628432 0.0051687 0 7.06446e-05 0 0)
(0.604003 0.00489187 -4.17676e-20 6.80889e-05 -1.78716e-22 1.54405e-36)
(0.579883 0.00451081 0 6.34175e-05 0 0)
(0.556429 0.00404873 7.92814e-20 5.71397e-05 2.71673e-22 5.96058e-36)
(0.533894 0.00352295 0 4.98791e-05 0 0)
(0.512411 0.00295613 -7.52428e-20 4.23266e-05 -1.56841e-22 5.75053e-36)
(0.492106 0.00237242 0 3.50351e-05 0 0)
(0.473119 0.0017852 0 2.83842e-05 0 0)
(0.455529 0.00119966 6.9741e-20 2.27174e-05 -4.40178e-23 5.44576e-36)
(0.43933 0.00062559 0 1.83324e-05 0 0)
(0.424518 7.73708e-05 6.65206e-20 1.5351e-05 -1.78762e-22 5.24942e-36)
(0.411114 -0.000438094 -6.50475e-20 1.37555e-05 2.43761e-22 5.15327e-36)
(0.399102 -0.000923227 0 1.35298e-05 0 0)
(0.388413 -0.0013787 -6.23883e-20 1.46275e-05 3.61966e-22 4.965e-36)
(0.378977 -0.00179857 -6.11966e-20 1.68506e-05 4.16154e-22 4.87286e-36)
(0.370763 -0.00217881 0 1.99267e-05 0 0)
(0.363734 -0.00252319 0 2.36815e-05 0 0)
(0.357806 -0.00283717 0 2.80051e-05 0 0)
(0.352893 -0.00312062 0 3.26841e-05 0 0)
(0.34894 -0.00337081 0 3.74213e-05 0 0)
(0.345916 -0.00358942 5.57782e-20 4.20257e-05 -6.46617e-22 4.34746e-36)
(0.343757 -0.0037821 0 4.64546e-05 0 0)
(0.342381 -0.00395217 -5.454e-20 5.06484e-05 6.8715e-22 4.18255e-36)
(0.341726 -0.00409874 0 5.44448e-05 0 0)
(0.341762 -0.00422127 0 5.77014e-05 0 0)
(0.342454 -0.00432287 5.30919e-20 6.04158e-05 -7.21224e-22 3.94447e-36)
(0.343737 -0.00440771 0 6.26537e-05 0 0)
(0.345553 -0.0044771 -5.23515e-20 6.44129e-05 7.27082e-22 3.79182e-36)
(0.347867 -0.00453012 0 6.56301e-05 0 0)
(0.350661 -0.00456718 0 6.62977e-05 0 0)
(0.353893 -0.00459124 0 6.65069e-05 0 0)
(0.357512 -0.00460527 5.12658e-20 6.63562e-05 -7.11812e-22 3.50066e-36)
(0.361481 -0.00460988 0 6.58697e-05 0 0)
(0.365785 -0.00460426 0 6.50333e-05 0 0)
(0.370406 -0.00458888 5.06966e-20 6.38817e-05 -6.83254e-22 3.29428e-36)
(0.375302 -0.00456614 0 6.25089e-05 0 0)
(0.380435 -0.00453736 5.03924e-20 6.09723e-05 -6.59178e-22 3.16221e-36)
(0.385779 -0.00450105 0 5.92469e-05 0 0)
(0.391329 -0.0044497 0 5.71684e-05 0 0)
(0.397075 -0.0043826 0 5.47495e-05 0 0)
(0.402989 -0.00430592 -4.98881e-20 5.21726e-05 6.00541e-22 2.91089e-36)
(0.409044 -0.00422507 0 4.95799e-05 0 0)
(0.415228 -0.00414199 0 4.70193e-05 0 0)
(0.421531 -0.00405731 -4.95547e-20 4.45127e-05 5.50967e-22 2.73318e-36)
(0.427933 -0.00397236 -4.94458e-20 4.20982e-05 5.34466e-22 2.67594e-36)
(0.434411 -0.00388849 0 3.98056e-05 0 0)
(0.440957 -0.00380589 -4.92252e-20 3.76293e-05 5.02202e-22 2.56435e-36)
(0.447571 -0.0037227 0 3.55277e-05 0 0)
(0.454248 -0.00363911 -9.79915e-20 3.35055e-05 9.43215e-22 9.82619e-36)
(0.460969 -0.00355637 0 3.15907e-05 0 0)
(0.46772 -0.00348238 -9.75096e-20 2.9903e-05 8.85085e-22 9.40974e-36)
(0.474503 -0.0034153 0 2.83937e-05 0 0)
(0.481323 -0.00335005 9.70017e-20 2.69738e-05 -8.31912e-22 9.00763e-36)
(0.48818 -0.00328413 0 2.56042e-05 0 0)
(0.495058 -0.00321831 0 2.42992e-05 0 0)
(0.501939 -0.00315524 0 2.3092e-05 0 0)
(0.508821 -0.00309569 -9.5882e-20 2.19827e-05 7.36973e-22 8.24487e-36)
(0.515713 -0.00303852 0 2.09468e-05 0 0)
(0.522621 -0.00298173 9.52693e-20 1.9956e-05 -6.93727e-22 7.88344e-36)
(0.529537 -0.00292567 0 1.90187e-05 0 0)
(0.536448 -0.00287192 -9.46178e-20 1.81502e-05 6.53604e-22 7.5348e-36)
(0.543351 -0.0028208 -9.42781e-20 1.73446e-05 6.34613e-22 7.36516e-36)
(0.550254 -0.00277105 -9.39292e-20 1.65821e-05 6.16371e-22 7.19858e-36)
(0.557165 -0.00272134 0 1.58475e-05 0 0)
(0.564081 -0.00267169 0 1.51428e-05 0 0)
(0.570992 -0.00262348 0 1.44823e-05 0 0)
(0.577891 -0.00257807 0 1.38756e-05 0 0)
(0.584783 -0.00253545 0 1.33173e-05 0 0)
(0.591679 -0.0024942 0 1.27895e-05 0 0)
(0.598581 -0.00245295 0 1.22795e-05 0 0)
(0.605487 -0.0024118 0 1.17894e-05 0 0)
(0.612388 -0.00237207 9.03891e-20 1.13302e-05 -4.81761e-22 5.82961e-36)
(0.619283 -0.00233479 8.99547e-20 1.09075e-05 -4.69482e-22 5.69119e-36)
(0.626177 -0.00229967 0 1.05157e-05 0 0)
(0.633077 -0.00226555 0 1.0144e-05 0 0)
(0.639986 -0.00223147 0 9.78487e-06 0 0)
(0.646899 -0.00219753 8.81445e-20 9.43959e-06 -4.24068e-22 5.16292e-36)
(0.653813 -0.00216459 0 9.11344e-06 0 0)
(0.660728 -0.00213323 0 8.80862e-06 0 0)
(0.667648 -0.00210326 0 8.52258e-06 0 0)
(0.674575 -0.00207411 0 8.25109e-06 0 0)
(0.681512 -0.00204538 -8.57235e-20 7.99142e-06 3.75559e-22 4.55689e-36)
(0.688456 -0.00201702 0 7.74297e-06 0 0)
(0.695406 -0.00198929 0 7.50635e-06 0 0)
(0.702364 -0.00196228 8.41937e-20 7.28085e-06 -3.49907e-22 4.22044e-36)
(0.709331 -0.0019359 -8.36715e-20 7.06531e-06 3.41949e-22 4.11261e-36)
(0.716309 -0.00191007 0 6.85928e-06 0 0)
(0.723297 -0.00188482 -8.261e-20 6.66309e-06 3.26637e-22 3.9032e-36)
(0.730294 -0.00186019 0 6.4769e-06 0 0)
(0.737303 -0.00183606 8.15263e-20 6.29935e-06 -3.11804e-22 3.70194e-36)
(0.744323 -0.00181218 0 6.12857e-06 0 0)
(0.751355 -0.00178843 0 5.96338e-06 0 0)
(0.7584 -0.00176491 0 5.80409e-06 0 0)
(0.765456 -0.0017419 0 5.65174e-06 0 0)
(0.772524 -0.00171951 0 5.50671e-06 0 0)
(0.779604 -0.00169761 -1.56285e-19 5.36826e-06 5.44236e-22 1.25775e-35)
(0.786699 -0.00167581 -1.55121e-19 5.23467e-06 5.31831e-22 1.22315e-35)
(0.793809 -0.00165384 0 5.10454e-06 0 0)
(0.800932 -0.00163165 0 4.9775e-06 0 0)
(0.808067 -0.00160954 0 4.85445e-06 0 0)
(0.815214 -0.00158784 1.50361e-19 4.73648e-06 -4.8559e-22 1.09165e-35)
(0.822373 -0.0015666 0 4.62346e-06 0 0)
(0.829544 -0.00154557 0 4.51451e-06 0 0)
(0.836729 -0.00152431 0 4.4082e-06 0 0)
(0.843927 -0.00150268 1.45443e-19 4.30408e-06 -4.42829e-22 9.70689e-36)
(0.851135 -0.00148091 -1.44189e-19 4.2029e-06 4.32494e-22 9.42015e-36)
(0.858353 -0.00145932 0 4.10531e-06 0 0)
(0.865581 -0.00143797 0 4.01106e-06 0 0)
(0.872819 -0.00141669 -1.40365e-19 3.91959e-06 4.03318e-22 8.5959e-36)
(0.880066 -0.00139535 -1.39071e-19 3.83073e-06 3.93743e-22 8.33282e-36)
(0.887323 -0.00137386 0 3.74443e-06 0 0)
(0.894587 -0.0013522 0 3.66051e-06 0 0)
(0.901858 -0.00133043 1.35127e-19 3.57896e-06 -3.65852e-22 7.57731e-36)
(0.909135 -0.00130865 -1.33792e-19 3.4997e-06 3.56995e-22 7.33641e-36)
(0.916417 -0.0012869 0 3.4225e-06 0 0)
(0.923704 -0.0012651 0 3.34706e-06 0 0)
(0.930997 -0.00124307 -1.29726e-19 3.27309e-06 3.31465e-22 6.64529e-36)
(0.938293 -0.00122079 0 3.20083e-06 0 0)
(0.94559 -0.00119845 0 3.13074e-06 0 0)
(0.952887 -0.00117612 -1.25568e-19 3.06291e-06 3.06517e-22 5.9998e-36)
(0.960185 -0.00115367 0 2.99682e-06 0 0)
(0.967481 -0.00113104 -1.22743e-19 2.93204e-06 2.90521e-22 5.59374e-36)
(0.974775 -0.00110833 0 2.86857e-06 0 0)
(0.982066 -0.00108537 0 2.80564e-06 0 0)
(0.989353 -0.00106211 0 2.74282e-06 0 0)
(0.996633 -0.00103862 1.16962e-19 2.68021e-06 -2.59747e-22 4.83717e-36)
(1.00391 -0.00101458 0 2.61701e-06 0 0)
(1.01117 -0.000990215 0 2.55321e-06 0 0)
(1.01842 -0.000965321 0 2.48804e-06 0 0)
(1.02566 -0.000939634 0 2.42047e-06 0 0)
(1.03289 -0.000913755 0 2.3487e-06 0 0)
(1.04009 -0.000885419 0 2.27406e-06 0 0)
(1.04729 -0.000860884 1.06408e-19 2.18838e-06 -2.05977e-22 3.67964e-36)
(1.05441 -0.000822368 1.0485e-19 2.10278e-06 -1.97009e-22 3.53055e-36)
(1.06169 -0.00081283 0 1.9875e-06 0 0)
(1.06848 -0.000734174 0 1.89675e-06 0 0)
(1.07638 -0.00079251 0 1.72577e-06 0 0)
(1.08174 -0.000590838 -9.84472e-20 1.63918e-06 1.52504e-22 2.97261e-36)