/*--------------------------------*- C++ -*----------------------------------*\
| =========                 |                                                 |
| \\      /  F ield         | OpenFOAM: The Open Source CFD Toolbox           |
|  \\    /   O peration     | Version:  2.1.x                                 |
|   \\  /    A nd           | Web:      www.OpenFOAM.org                      |
|    \\/     M anipulation  |                                                 |
\*---------------------------------------------------------------------------*/
FoamFile
{
    version     2.0;
    format      ascii;
    class       volScalarField;
    location    "0.002";
    object      k;
}
// * * * * * * * * * * * * * * * * * * * * * * * * * * * * * * * * * * * * * //

dimensions      [0 2 -2 0 0 0 0];

internalField   nonuniform List<scalar> 
12225
(
9.02158
9.12251
6.89636
5.03034
3.84324
3.77306
3.17625
2.9901
2.99818
3.4158
3.14325
3.126
3.73068
3.98281
4.51366
4.08422
5.19659
5.05549
2.44021
5.08322
5.37063
5.13225
4.3638
4.27383
3.91326
3.37816
3.26778
3.29825
3.01444
2.88923
2.96566
2.96449
3.0208
3.03274
2.7438
2.55995
0.198455
1.21766
1.92602
2.34314
2.38511
2.42226
2.43875
2.33787
2.19479
1.88744
1.80189
1.71685
1.43102
1.21204
1.23182
1.24379
1.10006
0.765958
0.00976187
0.148318
0.403304
0.608092
0.720362
0.699212
0.7843
0.904362
0.833616
0.665381
0.713263
0.702086
0.522991
0.351095
0.357468
0.3592
0.305347
0.190486
0.000372456
0.0128062
0.0449944
0.105178
0.115072
0.106385
0.146991
0.20583
0.184053
0.166791
0.193291
0.181676
0.125824
0.0790907
0.0778133
0.0743075
0.0562232
0.0336745
3.33176e-05
0.000851658
0.00410711
0.0107463
0.0111575
0.00976578
0.0141342
0.0262058
0.0260695
0.0240525
0.025047
0.0235663
0.0170222
0.0101001
0.00728731
0.0057088
0.00408525
0.00254014
2.9549e-05
8.85889e-05
0.000272797
0.000781655
0.00089519
0.000745132
0.000980179
0.00245458
0.00253648
0.00220004
0.00211116
0.0021432
0.00168914
0.000879462
0.000656345
0.000687856
0.000662346
0.00055934
2.87559e-05
3.11964e-05
4.47021e-05
7.13135e-05
8.59818e-05
8.64273e-05
0.000103072
0.000170446
0.000234463
0.000234326
0.000229568
0.000223203
0.000227633
0.000211599
0.000215747
0.000262051
0.000263457
0.000289887
2.12412e-05
2.94809e-05
3.44356e-05
3.85322e-05
5.22689e-05
5.52036e-05
5.69989e-05
8.03774e-05
0.000103785
0.000101262
0.000105843
0.000163691
0.000171585
0.000162723
0.000166454
0.000229641
0.000333475
0.000412118
2.0639e-05
2.41214e-05
3.83398e-05
4.32157e-05
4.13728e-05
4.26346e-05
4.1986e-05
4.15995e-05
4.88913e-05
6.7227e-05
7.9552e-05
8.88299e-05
0.000121192
0.000186825
0.000257799
0.000272959
0.00030775
0.000337719
2.37326e-05
3.35914e-05
3.33067e-05
3.62245e-05
5.8369e-05
6.06824e-05
5.50241e-05
5.54551e-05
5.57996e-05
5.22446e-05
5.36871e-05
8.55648e-05
0.000173906
0.000191678
0.00020922
0.000270127
0.000432145
0.000639375
2.9869e-05
2.62212e-05
2.44316e-05
2.67026e-05
3.80727e-05
4.71983e-05
4.76917e-05
4.29451e-05
4.11316e-05
4.54027e-05
5.55397e-05
6.88018e-05
0.000106901
0.000211053
0.000274473
0.000308373
0.000302187
0.000376483
2.25409e-05
2.57371e-05
2.69679e-05
2.79753e-05
3.08371e-05
3.08238e-05
2.96065e-05
3.01338e-05
3.29775e-05
3.57269e-05
4.01283e-05
5.49373e-05
0.000106325
0.000139965
0.000160452
0.000185708
0.000206565
0.000319854
2.64789e-05
2.70469e-05
2.63454e-05
2.58282e-05
2.60277e-05
2.66125e-05
2.82671e-05
2.89795e-05
2.97998e-05
3.23474e-05
3.84192e-05
5.10866e-05
7.93333e-05
0.000136805
0.000183088
0.000211726
0.000241415
0.000259064
2.88645e-05
3.4605e-05
3.22282e-05
3.05424e-05
3.06004e-05
3.01254e-05
2.87977e-05
2.81726e-05
2.89287e-05
3.33464e-05
4.01654e-05
5.25934e-05
8.67089e-05
0.00013444
0.000174415
0.000209769
0.000233746
0.000303289
2.41437e-05
2.66145e-05
2.81608e-05
3.12898e-05
3.56178e-05
3.5518e-05
3.46029e-05
3.44056e-05
3.53832e-05
3.91105e-05
4.71989e-05
6.54459e-05
0.000117942
0.000205369
0.000275241
0.000314646
0.000330508
0.000328036
2.15719e-05
2.16992e-05
2.29552e-05
2.60015e-05
3.78301e-05
4.11048e-05
3.8711e-05
3.46183e-05
3.39432e-05
3.51753e-05
4.20409e-05
6.83291e-05
0.000149734
0.000224493
0.00026457
0.000280523
0.00028399
0.000283398
2.11171e-05
2.39022e-05
2.76007e-05
3.09522e-05
3.22435e-05
3.0335e-05
2.92974e-05
2.9713e-05
3.00656e-05
3.15565e-05
3.75694e-05
6.09528e-05
0.000120538
0.000165379
0.000189442
0.000199506
0.00020256
0.000202552
2.09672e-05
2.47014e-05
2.85784e-05
2.94114e-05
2.91881e-05
2.759e-05
2.75566e-05
2.85921e-05
2.92503e-05
3.06849e-05
3.47255e-05
4.69811e-05
8.30941e-05
0.000120622
0.000145986
0.00016044
0.000167084
0.000168341
2.43093e-05
2.53465e-05
2.70833e-05
2.80631e-05
2.79784e-05
2.80487e-05
3.00458e-05
3.3707e-05
3.83289e-05
4.145e-05
4.32511e-05
4.77949e-05
6.27443e-05
0.000103914
0.000138777
0.000161421
0.000173911
0.000177225
2.25072e-05
2.57395e-05
2.63216e-05
2.60618e-05
2.64521e-05
2.78093e-05
3.20055e-05
3.50866e-05
3.81283e-05
4.09836e-05
4.4166e-05
5.16573e-05
7.53964e-05
0.00011954
0.000152302
0.000173035
0.000183553
0.0001856
2.2785e-05
2.32805e-05
2.35543e-05
2.56963e-05
3.40405e-05
4.60283e-05
5.05494e-05
5.067e-05
4.77411e-05
4.3933e-05
4.41413e-05
5.04952e-05
7.88032e-05
0.000110439
0.000127794
0.000136349
0.000139566
0.000139695
2.07515e-05
2.34386e-05
3.22447e-05
4.20099e-05
4.33339e-05
3.95276e-05
3.78617e-05
4.05067e-05
4.68587e-05
5.14547e-05
5.93098e-05
7.88953e-05
0.000107945
0.000129272
0.000141067
0.000145817
0.000146575
0.000145488
2.21145e-05
2.60854e-05
4.44949e-05
7.97096e-05
8.76211e-05
9.84656e-05
0.000134919
0.000266036
0.000383152
0.00042951
0.000456753
0.000475082
0.000476854
0.000469373
0.000440537
0.000386299
0.000329478
0.000268677
2.55495e-05
5.01711e-05
0.000222525
0.000859396
0.00112172
0.0014587
0.00245173
0.00518678
0.00615173
0.00616305
0.0060609
0.00579713
0.00522468
0.00442731
0.00356433
0.00274336
0.00205563
0.00148604
3.08703e-05
0.000724513
0.00526362
0.0170836
0.0203445
0.0246265
0.0388063
0.0614609
0.0658307
0.0650176
0.0623063
0.0559887
0.0479966
0.0392936
0.0310336
0.0238295
0.0180661
0.0134691
0.000395374
0.0170674
0.0892265
0.193191
0.222044
0.257617
0.354496
0.414645
0.414617
0.402112
0.369688
0.330141
0.287909
0.246292
0.205725
0.171475
0.141004
0.117346
0.0208304
0.288661
0.89188
1.23844
1.34309
1.52247
1.66794
1.66456
1.61226
1.48145
1.33855
1.2276
1.11078
1.01681
0.911853
0.841237
0.749552
0.702492
0.613558
3.18235
4.3673
4.37237
4.23885
3.98324
3.69665
3.40716
3.15127
2.92588
2.75404
2.61043
2.47855
2.35996
2.23959
2.14652
2.0316
1.96218
6.84513
9.78544
8.61162
6.44671
5.09123
4.18578
3.52021
3.11102
2.91284
2.82099
2.7664
2.68473
2.61895
2.53593
2.48301
2.40525
2.34843
2.27019
9.02199e-05
6.56577e-05
7.0486e-05
9.30277e-05
0.00013816
0.000207105
0.000310737
0.000461687
0.000675168
0.000969188
0.00136467
0.00188575
0.00255958
0.00341659
0.0044903
0.0058169
0.00743598
0.00938954
0.0117215
0.0144774
0.0177052
0.0214527
0.0257678
0.0306964
0.0362855
0.0425777
0.0496132
0.0574283
0.0660537
0.0755133
0.0858282
0.0970179
0.109087
0.122024
0.135824
0.150488
0.165993
0.182295
0.199359
0.217164
0.235673
0.254817
0.274538
0.294803
0.315565
0.33675
0.358289
0.38014
0.402261
0.424586
0.447047
0.469601
0.492212
0.514834
0.537408
0.559896
0.582271
0.604504
0.626555
0.648393
0.669999
0.691358
0.712446
0.733243
0.753739
0.773928
0.7938
0.813342
0.832551
0.851431
0.869979
0.888191
0.906066
0.923612
0.940834
0.957736
0.97431
0.99051
1.00636
1.02187
1.03707
1.05196
1.06656
1.08088
1.09494
1.10876
1.12232
1.13566
1.14878
1.16169
1.1744
1.18692
1.19926
1.21143
1.22343
1.23529
1.24699
1.25855
1.26999
1.2813
1.2925
1.30359
1.31457
1.32546
1.33625
1.34696
1.35759
1.36815
1.37863
1.38904
1.39939
1.40968
1.41993
1.43012
1.44026
1.45035
1.46041
1.47042
1.48041
1.49036
1.50027
1.51016
1.52003
1.52986
1.53967
1.54946
1.55923
1.56899
1.57872
1.58844
1.59814
1.60782
1.61749
1.62714
1.63678
1.64641
1.65602
1.66561
1.67519
1.68475
1.69429
1.70382
1.71333
1.72282
1.7323
1.74175
1.75117
1.76058
1.76996
1.77932
1.78864
1.79794
1.80719
1.81642
1.8256
1.83473
1.84382
1.85285
1.86181
1.87071
1.87952
1.88823
1.89681
1.90526
1.91353
1.92159
1.92939
1.93686
1.94391
1.95043
1.95626
1.96114
1.9646
1.96636
1.96553
1.9628
1.95191
1.93743
1.91313
1.83898
0.00083093
0.000230267
7.63996e-05
5.56292e-05
5.39797e-05
5.48237e-05
5.66432e-05
5.88186e-05
6.1474e-05
6.477e-05
6.88909e-05
7.40562e-05
8.05183e-05
8.85654e-05
9.85375e-05
0.000110828
0.000125883
0.000144189
0.000166305
0.000192872
0.000224587
0.000262207
0.000306615
0.000358779
0.000419759
0.000490653
0.00057274
0.000667372
0.000776
0.00090007
0.00104115
0.00120099
0.00138125
0.00158338
0.00180911
0.00206035
0.00233882
0.00264577
0.00298256
0.00335085
0.00375221
0.00418743
0.0046571
0.00516224
0.00570394
0.00628254
0.00689775
0.00754958
0.0082384
0.00896414
0.00972591
0.0105228
0.0113541
0.0122196
0.013118
0.0140479
0.0150078
0.015997
0.0170142
0.018058
0.0191266
0.0202187
0.0213332
0.0224687
0.0236238
0.0247971
0.0259873
0.0271934
0.0284141
0.0296486
0.0308956
0.0321542
0.0334235
0.034703
0.0359918
0.0372899
0.0385929
0.039969
0.0414053
0.0428928
0.0444258
0.0459961
0.0475976
0.0492279
0.050884
0.0525611
0.0542528
0.0559543
0.0576653
0.0593868
0.0611168
0.0628525
0.06459
0.0663295
0.0680744
0.0698242
0.0715762
0.0733291
0.0750832
0.0768404
0.0786024
0.0803689
0.0821381
0.0839091
0.0856837
0.0874653
0.0892566
0.0910578
0.0928678
0.0946865
0.0965155
0.0983579
0.100216
0.10209
0.103981
0.105888
0.107813
0.109757
0.111722
0.113709
0.115719
0.117754
0.119813
0.121897
0.124007
0.126143
0.128309
0.130507
0.132736
0.134998
0.137291
0.139617
0.141976
0.144372
0.146807
0.14928
0.151793
0.154345
0.156936
0.159567
0.162242
0.164962
0.167728
0.170539
0.173396
0.1763
0.179251
0.182252
0.185306
0.188412
0.191572
0.194786
0.198054
0.201377
0.204757
0.208196
0.211694
0.215255
0.21888
0.222568
0.226321
0.230139
0.234025
0.23798
0.242005
0.246105
0.250278
0.254528
0.258864
0.263257
0.267846
0.272202
0.277672
0.280834
0.289234
0.290823
0.304228
0.303231
0.324649
0.380288
0.00380128
0.000856685
0.000165778
6.88758e-05
5.60147e-05
5.51171e-05
5.57586e-05
5.68438e-05
5.79589e-05
5.90824e-05
6.01816e-05
6.12227e-05
6.2171e-05
6.29863e-05
6.36347e-05
6.40924e-05
6.43299e-05
6.43233e-05
6.40436e-05
6.34897e-05
6.26611e-05
6.15323e-05
6.01508e-05
5.85781e-05
5.67998e-05
5.48121e-05
5.26714e-05
5.0568e-05
4.83512e-05
4.60096e-05
4.36943e-05
4.15137e-05
3.94865e-05
3.76164e-05
3.59739e-05
3.46063e-05
3.35389e-05
3.26695e-05
3.22985e-05
3.22514e-05
3.25112e-05
3.31342e-05
3.41182e-05
3.54656e-05
3.71796e-05
3.92615e-05
4.17097e-05
4.45197e-05
4.76954e-05
5.12426e-05
5.51631e-05
5.94545e-05
6.41152e-05
6.91521e-05
7.45724e-05
8.03765e-05
8.65604e-05
9.31263e-05
0.00010008
0.000107424
0.000115153
0.000123266
0.000131762
0.000140643
0.000149907
0.000159549
0.000169563
0.00017995
0.000190708
0.000201832
0.000213317
0.000225159
0.000237358
0.000249911
0.000262814
0.000276064
0.000289651
0.000303633
0.000318122
0.000333173
0.000348861
0.000365217
0.000382248
0.000399982
0.000418532
0.000437428
0.000460498
0.000486891
0.000516197
0.000547982
0.000581731
0.000617114
0.000653831
0.000691671
0.000730535
0.000770263
0.000810682
0.000851675
0.000893182
0.000935178
0.000977646
0.00102054
0.00106379
0.00110738
0.00115134
0.00119576
0.00124069
0.00128613
0.00133205
0.00137847
0.00142544
0.00147307
0.00152143
0.00157053
0.00162038
0.001671
0.00172244
0.00177479
0.00182813
0.00188253
0.00193803
0.00199464
0.00205241
0.00211138
0.0021716
0.00223318
0.00229622
0.00236083
0.00242703
0.00249487
0.00256436
0.00263557
0.00270862
0.00278363
0.00286073
0.00294
0.00302147
0.00310516
0.00319113
0.00327954
0.00337053
0.00346425
0.00356074
0.0036601
0.00376237
0.00386764
0.00397607
0.00408787
0.00420321
0.0043222
0.00444494
0.00457159
0.00470224
0.00483707
0.0049763
0.00512014
0.00526893
0.00542289
0.00558234
0.0057476
0.00591898
0.00609694
0.00628207
0.00647494
0.0066764
0.00688771
0.00710982
0.0073445
0.00759492
0.00785968
0.00816005
0.00844735
0.00889418
0.0090928
0.00998571
0.0101123
0.0119076
0.0119759
0.015173
0.0252543
0.0110736
0.00239207
0.000374604
9.93352e-05
6.21158e-05
5.80619e-05
5.86557e-05
6.00523e-05
6.16225e-05
6.32009e-05
6.47471e-05
6.62151e-05
6.75561e-05
6.87115e-05
6.96315e-05
7.02899e-05
7.06453e-05
7.0649e-05
7.02384e-05
6.94521e-05
6.83307e-05
6.67967e-05
6.48669e-05
6.26358e-05
6.01339e-05
5.73432e-05
5.43489e-05
5.11763e-05
4.79312e-05
4.46579e-05
4.14045e-05
3.81994e-05
3.50371e-05
3.19527e-05
2.9011e-05
2.62301e-05
2.35907e-05
2.1101e-05
1.87966e-05
1.66877e-05
1.47534e-05
1.2981e-05
1.13769e-05
9.94349e-06
8.66598e-06
7.52712e-06
6.51643e-06
5.63096e-06
4.85705e-06
4.18183e-06
3.59552e-06
3.09059e-06
2.65928e-06
2.29287e-06
1.9829e-06
1.72226e-06
1.50506e-06
1.32595e-06
1.17968e-06
1.06202e-06
9.67313e-07
8.95448e-07
8.35201e-07
7.90987e-07
7.69681e-07
7.57174e-07
7.52311e-07
7.52988e-07
7.6025e-07
7.73347e-07
7.91491e-07
8.1405e-07
8.40509e-07
8.70422e-07
9.03418e-07
9.39223e-07
9.77654e-07
1.01854e-06
1.06184e-06
1.10752e-06
1.15574e-06
1.20663e-06
1.26026e-06
1.31682e-06
1.37643e-06
1.43876e-06
1.50627e-06
1.58071e-06
1.67023e-06
1.75827e-06
1.91726e-06
2.12289e-06
2.36457e-06
2.63467e-06
2.92758e-06
3.23928e-06
3.56666e-06
3.90747e-06
4.25996e-06
4.62268e-06
4.9945e-06
5.37444e-06
5.76163e-06
6.15554e-06
6.55587e-06
6.96261e-06
7.37567e-06
7.79471e-06
8.21943e-06
8.64989e-06
9.0865e-06
9.52984e-06
9.98019e-06
1.04374e-05
1.09015e-05
1.13725e-05
1.18511e-05
1.23386e-05
1.28356e-05
1.33426e-05
1.38596e-05
1.43865e-05
1.49239e-05
1.54727e-05
1.60339e-05
1.66087e-05
1.71981e-05
1.78027e-05
1.84228e-05
1.90589e-05
1.97118e-05
2.03827e-05
2.1073e-05
2.1784e-05
2.25175e-05
2.32742e-05
2.40545e-05
2.4859e-05
2.5689e-05
2.65466e-05
2.74339e-05
2.83524e-05
2.93031e-05
3.02867e-05
3.13043e-05
3.23574e-05
3.34489e-05
3.45825e-05
3.57608e-05
3.6985e-05
3.8257e-05
3.95797e-05
4.09548e-05
4.23863e-05
4.38796e-05
4.54384e-05
4.70699e-05
4.87799e-05
5.05757e-05
5.24676e-05
5.44648e-05
5.65818e-05
5.88378e-05
6.12527e-05
6.38564e-05
6.66942e-05
6.98074e-05
7.3266e-05
7.72031e-05
8.15933e-05
8.71909e-05
9.25393e-05
0.000103186
0.000106699
0.000133183
0.000137331
0.000200483
0.00021313
0.000351938
0.000973886
0.0240187
0.00528398
0.000756741
0.000152119
7.16894e-05
6.2015e-05
6.2468e-05
6.41695e-05
6.64858e-05
6.87995e-05
7.1079e-05
7.32548e-05
7.52618e-05
7.70175e-05
7.84373e-05
7.94761e-05
8.00949e-05
8.02397e-05
7.98739e-05
7.89622e-05
7.76027e-05
7.5717e-05
7.33749e-05
7.06992e-05
6.76793e-05
6.43074e-05
6.07216e-05
5.70535e-05
5.32883e-05
4.94278e-05
4.55711e-05
4.18093e-05
3.81684e-05
3.46586e-05
3.13047e-05
2.81322e-05
2.51631e-05
2.24142e-05
1.98833e-05
1.75558e-05
1.54278e-05
1.35071e-05
1.1789e-05
1.02513e-05
8.87434e-06
7.6518e-06
6.57954e-06
5.64143e-06
4.82062e-06
4.10416e-06
3.48381e-06
2.95029e-06
2.49192e-06
2.09806e-06
1.76093e-06
1.47422e-06
1.23145e-06
1.02614e-06
8.52732e-07
7.06777e-07
5.84472e-07
4.8234e-07
3.9722e-07
3.26403e-07
2.67664e-07
2.19079e-07
1.79014e-07
1.46057e-07
1.19008e-07
9.6862e-08
7.87802e-08
6.40582e-08
5.2104e-08
4.24225e-08
3.46028e-08
2.83068e-08
2.32557e-08
1.92188e-08
1.60054e-08
1.34587e-08
1.14518e-08
9.88167e-09
8.66201e-09
7.73881e-09
6.97508e-09
6.41396e-09
6.09909e-09
5.87762e-09
5.75334e-09
5.69168e-09
5.76173e-09
5.88955e-09
6.48361e-09
7.40776e-09
8.58757e-09
9.98117e-09
1.15606e-08
1.33052e-08
1.51977e-08
1.72229e-08
1.93688e-08
2.16255e-08
2.39849e-08
2.64404e-08
2.89861e-08
3.16163e-08
3.43253e-08
3.71073e-08
3.99577e-08
4.28749e-08
4.58588e-08
4.89092e-08
5.20242e-08
5.51992e-08
5.84304e-08
6.17176e-08
6.50661e-08
6.84826e-08
7.19708e-08
7.55318e-08
7.9161e-08
8.28557e-08
8.66194e-08
9.04612e-08
9.43915e-08
9.84179e-08
1.02543e-07
1.06768e-07
1.11092e-07
1.15522e-07
1.20065e-07
1.24735e-07
1.29542e-07
1.34492e-07
1.39597e-07
1.44862e-07
1.5029e-07
1.55887e-07
1.6167e-07
1.67653e-07
1.73854e-07
1.80279e-07
1.86935e-07
1.93827e-07
2.00965e-07
2.08362e-07
2.16049e-07
2.2406e-07
2.32414e-07
2.41118e-07
2.50188e-07
2.59651e-07
2.69527e-07
2.79858e-07
2.90704e-07
3.02099e-07
3.1412e-07
3.26836e-07
3.4032e-07
3.54716e-07
3.70142e-07
3.8678e-07
4.049e-07
4.24777e-07
4.4682e-07
4.71696e-07
5.00052e-07
5.32957e-07
5.72531e-07
6.18686e-07
6.82925e-07
7.45043e-07
8.88939e-07
9.40586e-07
1.33484e-06
1.46015e-06
2.57371e-06
3.14116e-06
6.53492e-06
3.07584e-05
0.0425727
0.00992214
0.00134438
0.000228234
8.50077e-05
6.7614e-05
6.80094e-05
7.04278e-05
7.39999e-05
7.75663e-05
8.1094e-05
8.44647e-05
8.75698e-05
9.0281e-05
9.24696e-05
9.40751e-05
9.50448e-05
9.53015e-05
9.48252e-05
9.35643e-05
9.17265e-05
8.91885e-05
8.60329e-05
8.24423e-05
7.84718e-05
7.41574e-05
6.96261e-05
6.497e-05
6.02284e-05
5.54956e-05
5.08842e-05
4.64219e-05
4.20986e-05
3.79618e-05
3.4084e-05
3.04846e-05
2.71397e-05
2.40402e-05
2.12016e-05
1.86328e-05
1.63195e-05
1.4238e-05
1.23702e-05
1.07069e-05
9.239e-06
7.95036e-06
6.8193e-06
5.82755e-06
4.96333e-06
4.21651e-06
3.57371e-06
3.02005e-06
2.54365e-06
2.1362e-06
1.79009e-06
1.49685e-06
1.24832e-06
1.03802e-06
8.60986e-07
7.12657e-07
5.8864e-07
4.8505e-07
3.9871e-07
3.26997e-07
2.67624e-07
2.18575e-07
1.78132e-07
1.44865e-07
1.17568e-07
9.52181e-08
7.69567e-08
6.20712e-08
4.9967e-08
4.01445e-08
3.21876e-08
2.57558e-08
2.05698e-08
1.6398e-08
1.30479e-08
1.03624e-08
8.21373e-09
6.49872e-09
5.13297e-09
4.04747e-09
3.18596e-09
2.50355e-09
1.96427e-09
1.53923e-09
1.20476e-09
9.41998e-10
7.36038e-10
5.74892e-10
4.49229e-10
3.5319e-10
2.80422e-10
2.26036e-10
1.86274e-10
1.58139e-10
1.39245e-10
1.27846e-10
1.21475e-10
1.21141e-10
1.23763e-10
1.29464e-10
1.37605e-10
1.47733e-10
1.59499e-10
1.72631e-10
1.86929e-10
2.02253e-10
2.18493e-10
2.35565e-10
2.53396e-10
2.71905e-10
2.91022e-10
3.10716e-10
3.30988e-10
3.51856e-10
3.7333e-10
3.954e-10
4.18006e-10
4.41106e-10
4.64709e-10
4.88875e-10
5.13674e-10
5.39147e-10
5.65288e-10
5.92067e-10
6.19476e-10
6.47557e-10
6.76383e-10
7.06047e-10
7.36612e-10
7.68114e-10
8.00594e-10
8.34083e-10
8.68609e-10
9.04233e-10
9.41086e-10
9.79293e-10
1.01894e-09
1.06008e-09
1.10271e-09
1.14685e-09
1.19261e-09
1.24011e-09
1.28957e-09
1.34126e-09
1.39535e-09
1.45182e-09
1.51078e-09
1.57249e-09
1.63711e-09
1.70499e-09
1.77668e-09
1.85245e-09
1.93294e-09
2.01879e-09
2.11063e-09
2.20983e-09
2.31761e-09
2.43568e-09
2.5668e-09
2.71386e-09
2.88095e-09
3.07533e-09
3.30434e-09
3.58022e-09
3.92748e-09
4.35031e-09
4.97857e-09
5.61516e-09
7.2015e-09
8.02413e-09
1.26592e-08
1.5795e-08
3.10941e-08
4.9846e-08
1.274e-07
9.21839e-07
0.065259
0.016549
0.00214476
0.000319942
0.000100953
7.53869e-05
7.63083e-05
8.0325e-05
8.60619e-05
9.1835e-05
9.7527e-05
0.000102936
0.000107877
0.000112138
0.000115493
0.000117852
0.000119184
0.00011944
0.000118582
0.000116512
0.000113585
0.000109736
0.000105154
0.000100041
9.44509e-05
8.84869e-05
8.23575e-05
7.6205e-05
7.00832e-05
6.406e-05
5.82242e-05
5.26419e-05
4.73637e-05
4.24272e-05
3.78382e-05
3.35841e-05
2.96709e-05
2.61174e-05
2.2917e-05
2.00348e-05
1.74408e-05
1.5125e-05
1.30791e-05
1.12803e-05
9.69802e-06
8.30755e-06
7.09319e-06
6.04094e-06
5.13312e-06
4.35004e-06
3.67484e-06
3.09519e-06
2.60088e-06
2.18118e-06
1.82497e-06
1.52263e-06
1.26689e-06
1.05182e-06
8.71628e-07
7.20772e-07
5.94534e-07
4.89204e-07
4.01701e-07
3.29228e-07
2.69276e-07
2.19752e-07
1.78948e-07
1.4543e-07
1.17962e-07
9.54874e-08
7.71359e-08
6.21889e-08
5.00429e-08
4.01899e-08
3.2211e-08
2.57649e-08
2.05708e-08
1.63942e-08
1.30404e-08
1.03518e-08
8.20137e-09
6.48585e-09
5.12017e-09
4.03472e-09
3.17324e-09
2.4909e-09
1.95169e-09
1.52656e-09
1.19191e-09
9.2892e-10
7.2262e-10
5.61078e-10
4.34971e-10
3.36685e-10
2.60104e-10
2.00582e-10
1.54456e-10
1.18774e-10
9.12228e-11
6.99921e-11
5.36549e-11
4.1104e-11
3.14825e-11
2.4128e-11
1.8525e-11
1.42708e-11
1.10518e-11
8.62594e-12
6.80701e-12
5.45181e-12
4.45073e-12
3.72004e-12
3.19581e-12
2.82894e-12
2.58287e-12
2.41528e-12
2.33432e-12
2.30717e-12
2.31446e-12
2.35249e-12
2.41519e-12
2.49691e-12
2.59351e-12
2.70242e-12
2.82209e-12
2.95141e-12
3.08917e-12
3.23417e-12
3.38549e-12
3.54288e-12
3.70651e-12
3.87682e-12
4.054e-12
4.23791e-12
4.42854e-12
4.62597e-12
4.8304e-12
5.04221e-12
5.26224e-12
5.49123e-12
5.72965e-12
5.97758e-12
6.23502e-12
6.50206e-12
6.77937e-12
7.06794e-12
7.36922e-12
7.68514e-12
8.01676e-12
8.36397e-12
8.72721e-12
9.10852e-12
9.50932e-12
9.93198e-12
1.03809e-11
1.08582e-11
1.13686e-11
1.19174e-11
1.25095e-11
1.31565e-11
1.38698e-11
1.46642e-11
1.55659e-11
1.6604e-11
1.78202e-11
1.92926e-11
2.11096e-11
2.34335e-11
2.65539e-11
3.07783e-11
3.73967e-11
4.63986e-11
6.50454e-11
9.32689e-11
1.69128e-10
3.66765e-10
8.71965e-10
2.53317e-09
7.76559e-09
4.87117e-08
0.0897821
0.0251021
0.00314507
0.000418072
0.000118843
8.73408e-05
9.05008e-05
9.79887e-05
0.000107717
0.000117599
0.000127242
0.000136262
0.000144293
0.000150987
0.000155991
0.000159185
0.000160556
0.000160211
0.000157859
0.000153856
0.000148612
0.000142151
0.000134755
0.000126726
0.000118267
0.00010958
0.000100868
9.22592e-05
8.38613e-05
7.58081e-05
6.8204e-05
6.10805e-05
5.44366e-05
4.82856e-05
4.26505e-05
3.75378e-05
3.29268e-05
2.87793e-05
2.50579e-05
2.17392e-05
1.8805e-05
1.62263e-05
1.39615e-05
1.19726e-05
1.02342e-05
8.72634e-06
7.42515e-06
6.30284e-06
5.33461e-06
4.50204e-06
3.79046e-06
3.1852e-06
2.6711e-06
2.23437e-06
1.86401e-06
1.55139e-06
1.2888e-06
1.06873e-06
8.84311e-07
7.29888e-07
6.01032e-07
4.93996e-07
4.0532e-07
3.31895e-07
2.71159e-07
2.21054e-07
1.79865e-07
1.46089e-07
1.18426e-07
9.5803e-08
7.73468e-08
6.23304e-08
5.01364e-08
4.02486e-08
3.22458e-08
2.57854e-08
2.05824e-08
1.63994e-08
1.30408e-08
1.03492e-08
8.19766e-09
6.48213e-09
5.11675e-09
4.03137e-09
3.17003e-09
2.48784e-09
1.94899e-09
1.52423e-09
1.18991e-09
9.27263e-10
7.21189e-10
5.59868e-10
4.33965e-10
3.35835e-10
2.59376e-10
1.9997e-10
1.53944e-10
1.18331e-10
9.08223e-11
6.96084e-11
5.32684e-11
4.06969e-11
3.10407e-11
2.36405e-11
1.79826e-11
1.36652e-11
1.03762e-11
7.87405e-12
5.97217e-12
4.52743e-12
3.43086e-12
2.59938e-12
1.9697e-12
1.49362e-12
1.13408e-12
8.62477e-13
6.57044e-13
5.01568e-13
3.83996e-13
2.95318e-13
2.28689e-13
1.78727e-13
1.41229e-13
1.13025e-13
9.17965e-14
7.58543e-14
6.39344e-14
5.50595e-14
4.84711e-14
4.36011e-14
4.00485e-14
3.74016e-14
3.56599e-14
3.46306e-14
3.40382e-14
3.38081e-14
3.38651e-14
3.41805e-14
3.47197e-14
3.54461e-14
3.63279e-14
3.73436e-14
3.84821e-14
3.9736e-14
4.11021e-14
4.25751e-14
4.41522e-14
4.58386e-14
4.76397e-14
4.9555e-14
5.15819e-14
5.37292e-14
5.60039e-14
5.8417e-14
6.10033e-14
6.37819e-14
6.67856e-14
7.00647e-14
7.36583e-14
7.76927e-14
8.23199e-14
8.7729e-14
9.43611e-14
1.02759e-13
1.1389e-13
1.29724e-13
1.53342e-13
1.9256e-13
2.67411e-13
4.44016e-13
8.77399e-13
2.07207e-12
5.34373e-12
1.59288e-11
4.51174e-11
1.48612e-10
4.34353e-10
1.34795e-09
4.15809e-09
1.29512e-08
0.113728
0.0350763
0.00426654
0.000512117
0.000143887
0.000112427
0.000121825
0.00013724
0.000155168
0.000173395
0.000190673
0.000206121
0.000219048
0.00022892
0.000235196
0.000238017
0.000237627
0.000234072
0.000227219
0.000218243
0.000207431
0.000195238
0.00018215
0.000168576
0.000154833
0.000141209
0.000127971
0.000115324
0.000103392
9.22405e-05
8.19014e-05
7.23968e-05
6.37401e-05
5.59238e-05
4.89072e-05
4.26272e-05
3.70237e-05
3.2053e-05
2.76757e-05
2.38409e-05
2.04856e-05
1.75511e-05
1.49933e-05
1.27783e-05
1.08703e-05
9.22832e-06
7.81422e-06
6.59897e-06
5.5603e-06
4.67692e-06
3.92683e-06
3.28971e-06
2.74916e-06
2.29225e-06
1.90773e-06
1.58504e-06
1.31445e-06
1.08766e-06
8.97952e-07
7.39826e-07
6.08506e-07
4.99651e-07
4.0946e-07
3.34814e-07
2.732e-07
2.22524e-07
1.80945e-07
1.46864e-07
1.18958e-07
9.616e-08
7.75888e-08
6.2496e-08
5.02463e-08
4.03175e-08
3.22879e-08
2.58109e-08
2.05971e-08
1.64059e-08
1.30419e-08
1.03476e-08
8.19517e-09
6.47934e-09
5.11361e-09
4.02787e-09
3.1665e-09
2.48455e-09
1.94618e-09
1.52187e-09
1.18786e-09
9.2556e-10
7.19662e-10
5.58541e-10
4.32925e-10
3.34902e-10
2.58516e-10
1.99258e-10
1.53384e-10
1.17894e-10
9.04785e-11
6.93374e-11
5.30545e-11
4.05273e-11
3.09054e-11
2.35316e-11
1.78941e-11
1.35929e-11
1.03169e-11
7.82494e-12
5.93062e-12
4.49152e-12
3.39941e-12
2.57181e-12
1.94577e-12
1.47312e-12
1.11643e-12
8.4684e-13
6.426e-13
4.87655e-13
3.702e-13
2.81442e-13
2.14613e-13
1.64343e-13
1.26416e-13
9.76706e-14
7.58121e-14
5.91769e-14
4.65214e-14
3.68814e-14
2.94959e-14
2.37886e-14
1.93425e-14
1.58634e-14
1.31325e-14
1.09764e-14
9.26068e-15
7.89157e-15
6.803e-15
5.93914e-15
5.25183e-15
4.69896e-15
4.24276e-15
3.85886e-15
3.53742e-15
3.27288e-15
3.05963e-15
2.88604e-15
2.73887e-15
2.6087e-15
2.49214e-15
2.3912e-15
2.30505e-15
2.23116e-15
2.16586e-15
2.10564e-15
2.05186e-15
2.00541e-15
1.96685e-15
1.94357e-15
1.93979e-15
1.96148e-15
2.03149e-15
2.18242e-15
2.53567e-15
3.20428e-15
4.61774e-15
7.76256e-15
1.51252e-14
3.35813e-14
8.19827e-14
2.1488e-13
5.83303e-13
1.66288e-12
4.71759e-12
1.42736e-11
4.11808e-11
1.27552e-10
3.72282e-10
1.06848e-09
3.14881e-09
8.31992e-09
0.135162
0.0454053
0.00535063
0.000607926
0.000209826
0.000194147
0.0002229
0.000259609
0.000298089
0.000335117
0.000367564
0.000392294
0.000408853
0.000417012
0.000416656
0.000410917
0.000398171
0.000380953
0.000360275
0.000337073
0.000312362
0.000286921
0.000261407
0.000236427
0.00021246
0.00018981
0.000168677
0.000149186
0.000131365
0.000115195
0.000100651
8.76739e-05
7.61468e-05
6.59342e-05
5.69227e-05
4.90169e-05
4.21175e-05
3.61159e-05
3.09034e-05
2.6382e-05
2.247e-05
1.90995e-05
1.62083e-05
1.3733e-05
1.16127e-05
9.79704e-06
8.24817e-06
6.93362e-06
5.82066e-06
4.87763e-06
4.07827e-06
3.40264e-06
2.83425e-06
2.35748e-06
1.95769e-06
1.62246e-06
1.34184e-06
1.10765e-06
9.1284e-07
7.511e-07
6.16947e-07
5.05777e-07
4.13802e-07
3.3791e-07
2.75473e-07
2.24212e-07
1.82165e-07
1.4771e-07
1.19534e-07
9.65567e-08
7.78669e-08
6.26871e-08
5.03711e-08
4.0396e-08
3.23368e-08
2.5841e-08
2.06143e-08
1.6414e-08
1.30441e-08
1.0347e-08
8.19319e-09
6.47642e-09
5.10982e-09
4.02374e-09
3.16245e-09
2.48109e-09
1.94328e-09
1.51944e-09
1.18576e-09
9.23659e-10
7.1803e-10
5.57143e-10
4.31706e-10
3.3384e-10
2.57635e-10
1.98564e-10
1.52832e-10
1.17442e-10
9.01072e-11
6.90356e-11
5.28111e-11
4.0333e-11
3.07528e-11
2.34135e-11
1.78029e-11
1.35219e-11
1.02607e-11
7.77864e-12
5.89096e-12
4.45696e-12
3.36948e-12
2.54647e-12
1.92507e-12
1.45672e-12
1.10362e-12
8.36838e-13
6.34739e-13
4.81459e-13
3.65359e-13
2.77737e-13
2.11806e-13
1.6217e-13
1.24653e-13
9.61618e-14
7.44817e-14
5.80093e-14
4.55276e-14
3.60659e-14
2.88441e-14
2.32683e-14
1.89154e-14
1.54965e-14
1.28021e-14
1.06706e-14
8.97626e-15
7.62653e-15
6.55449e-15
5.70184e-15
5.02012e-15
4.4673e-15
4.00745e-15
3.62025e-15
3.29834e-15
3.03624e-15
2.82535e-15
2.65188e-15
2.50078e-15
2.36329e-15
2.23824e-15
2.12949e-15
2.03728e-15
1.95795e-15
1.88739e-15
1.82186e-15
1.76301e-15
1.70924e-15
1.66166e-15
1.63346e-15
1.63007e-15
1.64404e-15
1.70348e-15
1.85962e-15
2.21364e-15
2.93882e-15
4.43928e-15
7.74218e-15
1.54746e-14
3.47008e-14
8.45764e-14
2.19286e-13
5.88955e-13
1.64343e-12
4.61479e-12
1.34322e-11
3.84569e-11
1.12048e-10
3.2257e-10
8.76463e-10
2.44385e-09
6.24896e-09
0.153158
0.0544646
0.00621174
0.000824592
0.00049239
0.000558498
0.000659531
0.000776604
0.000885901
0.000979346
0.00104047
0.00105439
0.00104083
0.000995302
0.000933064
0.00086106
0.000786691
0.000713161
0.000642314
0.000575108
0.000512143
0.00045366
0.000399811
0.000350706
0.000306286
0.000266394
0.000230858
0.000199448
0.000171836
0.000147672
0.000126629
0.000108367
9.25492e-05
7.88924e-05
6.71548e-05
5.70952e-05
4.84738e-05
4.10851e-05
3.47683e-05
2.9387e-05
2.48126e-05
2.09262e-05
1.76243e-05
1.48205e-05
1.24437e-05
1.04348e-05
8.74115e-06
7.31382e-06
6.10968e-06
5.09435e-06
4.24111e-06
3.52679e-06
2.92948e-06
2.42949e-06
2.01095e-06
1.6615e-06
1.37081e-06
1.12954e-06
9.29345e-07
7.63276e-07
6.25725e-07
5.12065e-07
4.18379e-07
3.4131e-07
2.77993e-07
2.26028e-07
1.83434e-07
1.48588e-07
1.20149e-07
9.69951e-08
7.81754e-08
6.28952e-08
5.0506e-08
4.0482e-08
3.23916e-08
2.58752e-08
2.06337e-08
1.64232e-08
1.30472e-08
1.03466e-08
8.19065e-09
6.47252e-09
5.10502e-09
4.01898e-09
3.15812e-09
2.47738e-09
1.94025e-09
1.5167e-09
1.18339e-09
9.21616e-10
7.16179e-10
5.55633e-10
4.30488e-10
3.32766e-10
2.5672e-10
1.97833e-10
1.52247e-10
1.16963e-10
8.97134e-11
6.871e-11
5.25435e-11
4.01172e-11
3.05833e-11
2.32838e-11
1.77048e-11
1.3447e-11
1.02013e-11
7.72917e-12
5.84826e-12
4.41989e-12
3.33773e-12
2.51993e-12
1.90335e-12
1.43903e-12
1.08917e-12
8.25045e-13
6.25283e-13
4.74106e-13
3.59867e-13
2.73773e-13
2.08958e-13
1.60032e-13
1.2292e-13
9.46564e-14
7.31398e-14
5.6837e-14
4.45519e-14
3.52893e-14
2.82413e-14
2.27976e-14
1.85386e-14
1.51849e-14
1.25392e-14
1.045e-14
8.79677e-15
7.48633e-15
6.44662e-15
5.6161e-15
4.94719e-15
4.40015e-15
3.94395e-15
3.56275e-15
3.25111e-15
3.00206e-15
2.80276e-15
2.6378e-15
2.4914e-15
2.35693e-15
2.2355e-15
2.13168e-15
2.04606e-15
1.97414e-15
1.91175e-15
1.85579e-15
1.80617e-15
1.76116e-15
1.72866e-15
1.71977e-15
1.72527e-15
1.75628e-15
1.84774e-15
2.05416e-15
2.49399e-15
3.31304e-15
4.98674e-15
8.6086e-15
1.69267e-14
3.71957e-14
8.88935e-14
2.25872e-13
5.96887e-13
1.62732e-12
4.50674e-12
1.2674e-11
3.57916e-11
9.9492e-11
2.80141e-10
7.31166e-10
1.94173e-09
5.14507e-09
0.168519
0.060662
0.00700296
0.00180188
0.00176447
0.00225226
0.00266291
0.00321418
0.00367279
0.00401378
0.00415702
0.00391621
0.00362508
0.00317227
0.00272042
0.00228452
0.0018997
0.0015756
0.0013108
0.00109539
0.000918984
0.000772956
0.000650985
0.000548495
0.000461987
0.000388837
0.000327017
0.000274814
0.000230755
0.000193638
0.000162445
0.000136247
0.000114232
9.5738e-05
8.02155e-05
6.7186e-05
5.62446e-05
4.70682e-05
3.93862e-05
3.29532e-05
2.75554e-05
2.30227e-05
1.92222e-05
1.60411e-05
1.338e-05
1.11527e-05
9.28746e-06
7.72546e-06
6.41893e-06
5.32845e-06
4.41981e-06
3.6626e-06
3.03096e-06
2.50426e-06
2.06624e-06
1.7031e-06
1.40233e-06
1.15306e-06
9.46487e-07
7.75627e-07
6.34704e-07
5.18714e-07
4.23328e-07
3.44932e-07
2.80577e-07
2.27842e-07
1.84709e-07
1.49496e-07
1.20803e-07
9.74594e-08
7.84948e-08
6.31076e-08
5.06448e-08
4.05729e-08
3.24511e-08
2.59123e-08