/*--------------------------------*- C++ -*----------------------------------*\
| =========                 |                                                 |
| \\      /  F ield         | OpenFOAM: The Open Source CFD Toolbox           |
|  \\    /   O peration     | Version:  2.1.x                                 |
|   \\  /    A nd           | Web:      www.OpenFOAM.org                      |
|    \\/     M anipulation  |                                                 |
\*---------------------------------------------------------------------------*/
FoamFile
{
    version     2.0;
    format      ascii;
    class       volScalarField;
    location    "0.002";
    object      k_0;
}
// * * * * * * * * * * * * * * * * * * * * * * * * * * * * * * * * * * * * * //

dimensions      [0 2 -2 0 0 0 0];

internalField   nonuniform List<scalar> 
12225
(
9.02015
9.11308
6.88684
5.01972
3.84558
3.77507
3.16107
2.98965
3.01203
3.41826
3.12959
3.13658
3.7666
3.99682
4.48826
4.06442
5.22625
5.10154
2.44838
5.07909
5.36922
5.12802
4.3659
4.28261
3.90584
3.37847
3.28
3.30271
3.00474
2.89695
2.97815
2.97807
3.03129
3.03462
2.73104
2.54916
0.198331
1.21777
1.9281
2.33657
2.38605
2.42827
2.4412
2.33767
2.19026
1.88197
1.80034
1.71167
1.41424
1.21589
1.24099
1.24606
1.08382
0.752759
0.00976195
0.149993
0.404108
0.606991
0.714835
0.69627
0.791875
0.904249
0.824878
0.666752
0.715871
0.698317
0.506029
0.350156
0.360711
0.360347
0.298782
0.185094
0.000373472
0.0129312
0.0457486
0.104188
0.112489
0.105022
0.150487
0.20516
0.182533
0.167502
0.19314
0.179283
0.120771
0.0777298
0.0778158
0.0734937
0.0542908
0.0316508
3.31354e-05
0.000860207
0.00422992
0.0105026
0.0107961
0.00956451
0.0146131
0.0263088
0.0259989
0.023996
0.0248355
0.023185
0.0161771
0.00965618
0.0070094
0.005539
0.00389293
0.00237577
2.95976e-05
8.85827e-05
0.000274853
0.000771138
0.000864198
0.000727147
0.00101091
0.002495
0.00252842
0.00217216
0.00210016
0.00211219
0.00160179
0.000828408
0.000647044
0.000682561
0.00065505
0.000548789
2.85631e-05
3.10074e-05
4.52457e-05
7.05555e-05
8.46702e-05
8.57725e-05
0.000104738
0.000174378
0.000235055
0.000233909
0.000226466
0.000221114
0.000225248
0.000208928
0.000215541
0.000259688
0.000259593
0.000291408
2.1075e-05
2.94279e-05
3.44562e-05
3.88553e-05
5.27211e-05
5.52272e-05
5.72106e-05
8.25133e-05
0.000103484
0.000101215
0.000106828
0.000165398
0.000169402
0.000161342
0.000166297
0.000238614
0.000336993
0.000402851
2.07112e-05
2.43715e-05
3.87065e-05
4.27767e-05
4.0935e-05
4.23455e-05
4.1683e-05
4.14477e-05
4.96041e-05
6.80424e-05
7.99933e-05
8.96122e-05
0.000125898
0.000192038
0.000257888
0.000271148
0.000303653
0.000338772
2.42571e-05
3.33286e-05
3.28357e-05
3.62964e-05
5.86826e-05
6.01426e-05
5.4296e-05
5.48804e-05
5.5033e-05
5.16944e-05
5.40305e-05
9.1742e-05
0.000176897
0.000192375
0.000211424
0.00027869
0.000450187
0.000615629
2.98017e-05
2.57263e-05
2.43458e-05
2.68577e-05
3.87589e-05
4.71453e-05
4.73367e-05
4.2337e-05
4.09736e-05
4.58078e-05
5.64034e-05
7.07124e-05
0.000114082
0.000218684
0.000278027
0.000305295
0.000296993
0.000376013
2.27752e-05
2.58533e-05
2.7038e-05
2.80363e-05
3.07978e-05
3.06729e-05
2.95051e-05
3.0125e-05
3.30326e-05
3.58529e-05
4.07098e-05
5.72897e-05
0.000110979
0.000142271
0.000162426
0.000187081
0.000209809
0.000358843
2.64589e-05
2.68832e-05
2.62372e-05
2.58106e-05
2.60324e-05
2.66206e-05
2.82421e-05
2.89327e-05
2.9855e-05
3.26202e-05
3.91637e-05
5.30433e-05
8.41425e-05
0.000141947
0.000186676
0.000214493
0.00023895
0.000255117
2.90889e-05
3.40933e-05
3.16466e-05
3.02987e-05
3.04302e-05
2.99033e-05
2.85977e-05
2.80894e-05
2.90045e-05
3.37715e-05
4.09729e-05
5.44464e-05
9.13771e-05
0.000138629
0.000177686
0.00021187
0.00023761
0.000306468
2.43679e-05
2.66604e-05
2.822e-05
3.13438e-05
3.54349e-05
3.5258e-05
3.43718e-05
3.42605e-05
3.54137e-05
3.94831e-05
4.81982e-05
6.807e-05
0.000125758
0.000212726
0.000279701
0.000315953
0.000329072
0.000325872
2.13659e-05
2.16767e-05
2.30772e-05
2.63104e-05
3.82607e-05
4.0929e-05
3.82807e-05
3.44102e-05
3.39056e-05
3.53779e-05
4.31712e-05
7.30402e-05
0.000158444
0.000229738
0.000266829
0.000280905
0.000283589
0.000282438
2.11621e-05
2.40739e-05
2.77485e-05
3.10032e-05
3.21069e-05
3.00902e-05
2.92024e-05
2.96379e-05
3.00634e-05
3.17855e-05
3.85844e-05
6.54581e-05
0.00012614
0.000168965
0.000191316
0.000200295
0.000202741
0.000202417
2.10613e-05
2.48158e-05
2.86346e-05
2.93553e-05
2.90802e-05
2.74475e-05
2.74903e-05
2.85798e-05
2.9268e-05
3.08372e-05
3.53031e-05
4.9085e-05
8.74477e-05
0.000123965
0.00014811
0.000161468
0.000167284
0.000168108
2.44878e-05
2.5247e-05
2.71058e-05
2.80097e-05
2.79226e-05
2.80498e-05
3.0341e-05
3.40373e-05
3.85697e-05
4.15195e-05
4.34805e-05
4.85403e-05
6.57244e-05
0.000108333
0.000141729
0.000163014
0.000174217
0.000176749
2.26105e-05
2.57907e-05
2.62941e-05
2.60371e-05
2.6462e-05
2.78852e-05
3.22081e-05
3.52184e-05
3.82795e-05
4.11459e-05
4.46153e-05
5.28726e-05
7.94834e-05
0.000123539
0.000155034
0.000174438
0.000183755
0.00018518
2.27244e-05
2.31938e-05
2.35314e-05
2.58403e-05
3.46148e-05
4.62286e-05
5.02766e-05
5.02385e-05
4.70201e-05
4.36097e-05
4.41059e-05
5.16435e-05
8.24299e-05
0.000112766
0.00012896
0.00013673
0.000139432
0.000139347
2.07379e-05
2.36604e-05
3.27855e-05
4.18891e-05
4.28617e-05
3.8874e-05
3.74997e-05
4.04147e-05
4.66833e-05
5.13549e-05
5.96527e-05
8.06408e-05
0.000109537
0.0001301
0.000141087
0.000145278
0.000145807
0.000144524
2.20615e-05
2.63765e-05
4.59181e-05
7.84161e-05
8.5649e-05
9.6844e-05
0.000135415
0.000269978
0.000381409
0.000425297
0.000451325
0.000467693
0.00046853
0.000459874
0.000428216
0.000374154
0.000317838
0.000258147
2.55607e-05
5.01852e-05
0.000226365
0.000842223
0.00108951
0.00143887
0.00250845
0.00523804
0.0060867
0.00608281
0.00596662
0.00567813
0.00508116
0.00427669
0.00341913
0.00261447
0.00194792
0.00140205
3.09153e-05
0.000733597
0.00538108
0.016804
0.0198821
0.0243802
0.0396087
0.0616049
0.0653505
0.0644245
0.0614752
0.0548596
0.046797
0.0380927
0.0299205
0.0228613
0.0172643
0.0128341
0.000395952
0.0172037
0.0905196
0.191345
0.219383
0.256928
0.357692
0.41416
0.4132
0.399631
0.365723
0.325805
0.283304
0.241568
0.201174
0.167252
0.137278
0.114093
0.0207716
0.289664
0.895373
1.2352
1.33944
1.52567
1.66902
1.66388
1.60853
1.47384
1.33132
1.22039
1.10345
1.00933
0.904516
0.833965
0.742737
0.695802
0.61262
3.18882
4.3657
4.37075
4.23887
3.98594
3.69776
3.40767
3.15138
2.92619
2.75527
2.61196
2.47986
2.36098
2.2403
2.14707
2.03179
1.96218
6.85655
9.77996
8.60222
6.44347
5.09097
4.18314
3.51771
3.11302
2.91946
2.83034
2.77622
2.69421
2.62834
2.54517
2.49231
2.41415
2.35738
2.27892
8.99985e-05
6.5451e-05
7.03279e-05
9.29038e-05
0.000138018
0.000206949
0.000310567
0.000461508
0.000674983
0.000968999
0.00136448
0.00188553
0.00255933
0.00341624
0.00448977
0.00581606
0.00743462
0.00938739
0.0117181
0.0144724
0.0176978
0.0214421
0.0257528
0.0306759
0.036258
0.0425413
0.0495661
0.0573682
0.065978
0.0754193
0.085713
0.0968785
0.10892
0.121826
0.135591
0.150217
0.165682
0.181939
0.198954
0.216709
0.235164
0.254251
0.273913
0.294117
0.314817
0.335938
0.357412
0.379198
0.401253
0.423512
0.445907
0.468395
0.490942
0.513501
0.536013
0.55844
0.580757
0.602934
0.62493
0.646715
0.668271
0.689581
0.710623
0.731377
0.751832
0.771983
0.791818
0.811326
0.830504
0.849354
0.867875
0.886063
0.903915
0.92144
0.938644
0.955528
0.97209
0.98828
1.00412
1.01963
1.03482
1.04971
1.06431
1.07863
1.09269
1.1065
1.12007
1.13341
1.14653
1.15945
1.17217
1.1847
1.19704
1.20922
1.22123
1.2331
1.24481
1.25639
1.26783
1.27916
1.29037
1.30148
1.31248
1.32338
1.33419
1.34492
1.35557
1.36614
1.37664
1.38708
1.39745
1.40776
1.41803
1.42824
1.43841
1.44853
1.45861
1.46865
1.47866
1.48864
1.49859
1.50851
1.5184
1.52827
1.53811
1.54793
1.55774
1.56753
1.5773
1.58705
1.59679
1.6065
1.61621
1.6259
1.63558
1.64525
1.6549
1.66454
1.67416
1.68376
1.69335
1.70293
1.71248
1.72202
1.73154
1.74104
1.75052
1.75998
1.76941
1.77882
1.7882
1.79755
1.80686
1.81614
1.82538
1.83457
1.84372
1.85281
1.86184
1.87079
1.87967
1.88844
1.89709
1.9056
1.91394
1.92207
1.92993
1.93747
1.94459
1.95118
1.95708
1.96203
1.96557
1.96739
1.96664
1.96391
1.95318
1.93865
1.91439
1.84046
0.000829482
0.000228933
7.60007e-05
5.54382e-05
5.38125e-05
5.46482e-05
5.6447e-05
5.85954e-05
6.12179e-05
6.44736e-05
6.85458e-05
7.36523e-05
8.0044e-05
8.8007e-05
9.7879e-05
0.000110051
0.000124966
0.000143106
0.000165026
0.000191363
0.000222809
0.000260114
0.000304153
0.000355886
0.000416364
0.000486673
0.000568082
0.000661928
0.000769648
0.00089267
0.00103255
0.00119102
0.0013697
0.00157004
0.00179375
0.00204272
0.00231863
0.00262273
0.00295633
0.00332111
0.0037186
0.00414956
0.00461457
0.00511466
0.00565089
0.00622359
0.00683246
0.00747751
0.00815913
0.00887724
0.00963091
0.0104192
0.0112417
0.0120979
0.0129865
0.0139063
0.0148558
0.0158341
0.0168402
0.0178725
0.0189293
0.0200094
0.0211117
0.0222347
0.023377
0.0245374
0.0257145
0.0269074
0.0281148
0.0293357
0.0305691
0.031814
0.0330696
0.0343352
0.03561
0.0368941
0.0381822
0.0395399
0.040958
0.0424274
0.0439424
0.0454948
0.0470786
0.0486913
0.0503299
0.0519895
0.053664
0.0553484
0.0570425
0.0587473
0.0604607
0.0621799
0.0639009
0.0656241
0.0673528
0.0690865
0.0708226
0.0725594
0.0742976
0.076039
0.0777853
0.079536
0.0812894
0.0830447
0.0848035
0.0865695
0.0883452
0.0901307
0.091925
0.093728
0.0955412
0.0973679
0.0992102
0.101069
0.102944
0.104835
0.106743
0.108671
0.11062
0.11259
0.114585
0.116603
0.118645
0.120712
0.122805
0.124925
0.127073
0.129253
0.131465
0.133709
0.135985
0.138292
0.140634
0.143012
0.145427
0.147883
0.150377
0.152909
0.155481
0.158093
0.160748
0.163448
0.166194
0.168985
0.171822
0.174705
0.177635
0.180616
0.183648
0.186733
0.189871
0.193063
0.196309
0.19961
0.202968
0.206383
0.209859
0.213397
0.216998
0.220662
0.224391
0.228186
0.232048
0.235978
0.239979
0.244053
0.248202
0.252427
0.256737
0.261105
0.265666
0.270002
0.275429
0.278596
0.286928
0.28851
0.30185
0.300852
0.322276
0.377771
0.00379871
0.000851763
0.000164577
6.85441e-05
5.58344e-05
5.49487e-05
5.55793e-05
5.66429e-05
5.77335e-05
5.88298e-05
5.9899e-05
6.09077e-05
6.18217e-05
6.26013e-05
6.32135e-05
6.36348e-05
6.3837e-05
6.37981e-05
6.34829e-05
6.29026e-05
6.20491e-05
6.08997e-05
5.95029e-05
5.79194e-05
5.61341e-05
5.41441e-05
5.20071e-05
4.99099e-05
4.77012e-05
4.53735e-05
4.30758e-05
4.09141e-05
3.89052e-05
3.7053e-05
3.54273e-05
3.40742e-05
3.30177e-05
3.21575e-05
3.17882e-05
3.17401e-05
3.19933e-05
3.26043e-05
3.35702e-05
3.48934e-05
3.65771e-05
3.8622e-05
4.10262e-05
4.37854e-05
4.69034e-05
5.03856e-05
5.42337e-05
5.84449e-05
6.30177e-05
6.79592e-05
7.32759e-05
7.89681e-05
8.50318e-05
9.14693e-05
9.82861e-05
0.000105485
0.00011306
0.00012101
0.000129335
0.000138037
0.000147113
0.000156557
0.000166366
0.00017654
0.000187076
0.00019797
0.000209216
0.000220812
0.000232757
0.000245048
0.000257681
0.000270652
0.000283956
0.000297637
0.000311811
0.000326531
0.000341874
0.000357869
0.000374527
0.000391875
0.000410017
0.000428484
0.000450976
0.000476754
0.000505414
0.000536522
0.000569567
0.000604223
0.000640193
0.00067727
0.000715358
0.000754296
0.000793912
0.000834092
0.000874776
0.000915943
0.000957571
0.000999612
0.00104201
0.00108473
0.00112783
0.00117137
0.00121542
0.00125996
0.00130498
0.00135049
0.00139654
0.00144323
0.00149064
0.00153878
0.00158766
0.00163729
0.00168772
0.00173905
0.00179135
0.00184469
0.00189911
0.00195463
0.00201128
0.0020691
0.00212815
0.00218854
0.00225037
0.00231373
0.00237866
0.0024452
0.00251335
0.0025832
0.00265484
0.00272842
0.00280405
0.00288181
0.00296172
0.00304382
0.00312816
0.0032149
0.00330417
0.00339611
0.00349079
0.00358827
0.00368862
0.00379192
0.00389831
0.00400802
0.00412121
0.00423799
0.00435845
0.00448276
0.00461098
0.00474332
0.00487999
0.00502119
0.00516725
0.00531839
0.00547494
0.0056372
0.00580547
0.00598022
0.00616202
0.00635143
0.00654931
0.00675688
0.00697507
0.00720565
0.0074517
0.00771201
0.008007
0.00829025
0.00872804
0.00892643
0.00980212
0.0099272
0.0116951
0.0117652
0.0149306
0.0248938
0.0110805
0.00238024
0.000371791
9.87239e-05
6.18917e-05
5.78879e-05
5.84715e-05
5.9843e-05
6.13812e-05
6.29242e-05
6.44318e-05
6.58584e-05
6.7156e-05
6.82667e-05
6.91421e-05
6.97567e-05
7.00703e-05
7.00374e-05
6.95864e-05
6.87738e-05
6.76283e-05
6.60762e-05
6.41358e-05
6.19012e-05
5.94019e-05
5.66204e-05
5.36415e-05
5.04904e-05
4.72716e-05
4.40275e-05
4.0806e-05
3.76346e-05
3.45073e-05
3.14597e-05
2.85553e-05
2.58109e-05
2.3207e-05
2.07522e-05
1.84814e-05
1.64042e-05
1.44994e-05
1.27543e-05
1.11759e-05
9.76598e-06
8.50965e-06
7.3898e-06
6.39627e-06
5.52613e-06
4.76583e-06
4.10256e-06
3.52672e-06
3.03092e-06
2.60749e-06
2.2478e-06
1.94352e-06
1.68768e-06
1.47449e-06
1.29868e-06
1.15509e-06
1.03954e-06
9.46518e-07
8.75928e-07
8.16694e-07
7.73045e-07
7.51997e-07
7.39528e-07
7.34547e-07
7.35035e-07
7.41898e-07
7.54476e-07
7.7199e-07
7.93817e-07
8.19455e-07
8.48462e-07
8.80476e-07
9.15228e-07
9.5254e-07
9.9224e-07
1.03428e-06
1.07863e-06
1.12544e-06
1.17484e-06
1.22689e-06
1.2818e-06
1.33965e-06
1.40021e-06
1.46561e-06
1.53781e-06
1.62456e-06
1.70968e-06
1.86377e-06
2.06325e-06
2.29794e-06
2.56036e-06
2.84501e-06
3.14795e-06
3.46615e-06
3.79743e-06
4.14006e-06
4.49264e-06
4.85406e-06
5.22335e-06
5.59969e-06
5.98256e-06
6.37168e-06
6.76704e-06
7.16855e-06
7.57588e-06
7.98871e-06
8.40712e-06
8.83152e-06
9.26248e-06
9.70026e-06
1.01447e-05
1.05958e-05
1.10536e-05
1.1519e-05
1.19928e-05
1.24759e-05
1.29688e-05
1.34714e-05
1.39836e-05
1.4506e-05
1.50395e-05
1.5585e-05
1.61438e-05
1.67168e-05
1.73045e-05
1.79073e-05
1.85257e-05
1.91604e-05
1.98126e-05
2.04836e-05
2.11748e-05
2.18879e-05
2.26235e-05
2.33821e-05
2.41641e-05
2.4971e-05
2.58048e-05
2.66674e-05
2.75603e-05
2.84845e-05
2.94408e-05
3.04301e-05
3.14539e-05
3.2515e-05
3.36172e-05
3.47627e-05
3.59529e-05
3.71897e-05
3.84756e-05
3.98126e-05
4.12044e-05
4.26564e-05
4.4172e-05
4.57584e-05
4.74212e-05
4.91674e-05
5.10073e-05
5.29496e-05
5.50086e-05
5.72031e-05
5.95522e-05
6.20853e-05
6.48465e-05
6.78761e-05
7.12429e-05
7.5075e-05
7.93533e-05
8.47968e-05
9.0033e-05
0.000100355
0.000103871
0.000129612
0.000133689
0.000195293
0.000207811
0.000344009
0.000954253
0.0240697
0.00526296
0.000751671
0.000151141
7.14102e-05
6.18344e-05
6.22758e-05
6.39466e-05
6.62187e-05
6.84839e-05
7.07106e-05
7.28304e-05
7.4779e-05
7.64754e-05
7.78367e-05
7.88193e-05
7.93855e-05
7.94859e-05
7.9073e-05
7.81295e-05
7.6745e-05
7.48422e-05
7.24928e-05
6.98181e-05
6.68062e-05
6.34508e-05
5.98896e-05
5.62516e-05
5.25202e-05
4.8698e-05
4.48837e-05
4.11666e-05
3.7571e-05
3.41066e-05
3.07976e-05
2.76694e-05
2.47434e-05
2.20355e-05
1.95431e-05
1.72515e-05
1.51572e-05
1.32678e-05
1.15782e-05
1.00661e-05
8.71243e-06
7.51097e-06
6.45758e-06
5.53612e-06
4.72992e-06
4.02634e-06
3.41732e-06
2.89367e-06
2.44382e-06
2.0573e-06
1.72652e-06
1.44527e-06
1.20716e-06
1.00581e-06
8.35762e-07
6.9265e-07
5.72744e-07
4.72629e-07
3.89195e-07
3.19785e-07
2.62218e-07
2.14606e-07
1.75347e-07
1.43055e-07
1.16553e-07
9.48558e-08
7.7141e-08
6.27184e-08
5.10077e-08
4.15233e-08
3.38628e-08
2.76948e-08
2.27461e-08
1.87909e-08
1.56422e-08
1.31465e-08
1.11794e-08
9.6398e-09
8.44371e-09
7.53757e-09
6.78885e-09
6.23684e-09
5.92474e-09
5.70511e-09
5.58071e-09
5.51844e-09
5.58239e-09
5.7025e-09
6.27433e-09
7.16526e-09
8.30348e-09
9.64853e-09
1.11733e-08
1.28577e-08
1.46849e-08
1.66403e-08
1.8712e-08
2.08906e-08
2.31684e-08
2.55389e-08
2.79965e-08
3.05357e-08
3.3151e-08
3.58368e-08
3.85885e-08
4.14048e-08
4.42854e-08
4.72304e-08
5.02379e-08
5.33032e-08
5.64227e-08
5.95963e-08
6.28291e-08
6.61276e-08
6.94955e-08
7.29337e-08
7.64377e-08
8.0005e-08
8.36388e-08
8.73481e-08
9.11428e-08
9.50305e-08
9.90138e-08
1.03093e-07
1.07268e-07
1.11545e-07
1.15932e-07
1.20441e-07
1.25082e-07
1.29863e-07
1.34792e-07
1.39876e-07
1.45117e-07
1.50521e-07
1.56105e-07
1.61883e-07
1.6787e-07
1.74075e-07
1.80502e-07
1.87157e-07
1.94049e-07
2.01192e-07
2.08615e-07
2.16351e-07
2.24419e-07
2.32824e-07
2.41582e-07
2.50721e-07
2.60259e-07
2.70235e-07
2.8071e-07
2.91715e-07
3.03326e-07
3.15607e-07
3.28632e-07
3.42538e-07
3.57439e-07
3.73513e-07
3.91022e-07
4.10229e-07
4.31532e-07
4.55577e-07
4.82988e-07
5.14811e-07
5.53069e-07
5.97767e-07
6.59792e-07
7.20292e-07
8.58845e-07
9.09669e-07
1.29119e-06
1.41301e-06
2.49169e-06
3.0466e-06
6.35715e-06
2.99997e-05
0.0427341
0.0098901
0.00133723
0.000226991
8.46908e-05
6.74221e-05
6.77965e-05
7.01698e-05
7.36771e-05
7.7172e-05
8.06227e-05
8.39121e-05
8.69337e-05
8.95616e-05
9.16698e-05
9.32e-05
9.41015e-05
9.4303e-05
9.37716e-05
9.24757e-05
9.06156e-05
8.80657e-05
8.49115e-05
8.13341e-05
7.73863e-05
7.31042e-05
6.86133e-05
6.40037e-05
5.93137e-05
5.46369e-05
5.00836e-05
4.56794e-05
4.14141e-05
3.73354e-05
3.35145e-05
2.9969e-05
2.6675e-05
2.36234e-05
2.08301e-05
1.83032e-05
1.60282e-05
1.39813e-05
1.21451e-05
1.05104e-05
9.06822e-06
7.80237e-06
6.6914e-06
5.7174e-06
4.86889e-06
4.13584e-06
3.50498e-06
2.96162e-06
2.49414e-06
2.09441e-06
1.75492e-06
1.46733e-06
1.22358e-06
1.01736e-06
8.43782e-07
6.98372e-07
5.76806e-07
4.75268e-07
3.90643e-07
3.20362e-07
2.6218e-07
2.14119e-07
1.74493e-07
1.419e-07
1.15156e-07
9.32614e-08
7.53727e-08
6.07919e-08
4.89359e-08
3.9315e-08
3.15217e-08
2.52224e-08
2.01433e-08
1.60577e-08
1.2777e-08
1.01471e-08
8.04293e-09
6.36349e-09
5.02609e-09
3.96313e-09
3.11953e-09
2.4513e-09
1.92324e-09
1.50703e-09
1.17951e-09
9.22209e-10
7.20522e-10
5.62716e-10
4.39659e-10
3.45582e-10
2.74257e-10
2.20908e-10
1.81855e-10
1.54164e-10
1.35503e-10
1.24151e-10
1.17712e-10
1.17177e-10
1.19502e-10
1.24835e-10
1.32542e-10
1.4218e-10
1.53409e-10
1.65961e-10
1.79644e-10
1.94318e-10
2.09876e-10
2.26237e-10
2.4333e-10
2.61076e-10
2.79408e-10
2.98293e-10
3.17735e-10
3.37749e-10
3.58347e-10
3.79518e-10
4.01203e-10
4.23364e-10
4.46006e-10
4.69189e-10
4.92981e-10
5.1742e-10
5.42501e-10
5.68195e-10
5.94492e-10
6.21434e-10
6.49092e-10
6.77555e-10
7.06883e-10
7.37111e-10
7.68278e-10
8.00413e-10
8.33543e-10
8.67727e-10
9.03092e-10
9.39757e-10
9.77808e-10
1.01728e-09
1.05819e-09
1.10056e-09
1.14447e-09
1.19005e-09
1.23751e-09
1.28713e-09
1.33904e-09
1.39324e-09
1.44982e-09
1.50905e-09
1.57107e-09
1.63623e-09
1.70504e-09
1.77777e-09
1.85504e-09
1.93745e-09
2.02562e-09
2.12086e-09
2.22435e-09
2.33773e-09
2.46366e-09
2.60492e-09
2.76545e-09
2.95222e-09
3.17232e-09
3.43759e-09
3.77137e-09
4.17864e-09
4.78173e-09
5.39892e-09
6.91863e-09
7.71924e-09
1.21863e-08
1.52234e-08
2.99692e-08
4.82456e-08
1.23712e-07
8.95697e-07
0.0656133
0.0165139
0.00213523
0.000318753
0.000100658
7.51692e-05
7.60401e-05
7.99779e-05
8.56137e-05
9.12733e-05
9.68441e-05
0.000102127
0.000106941
0.000111078
0.000114317
0.000116573
0.000117816
0.000118006
0.000117083
0.000114984
0.000112046
0.000108203
0.000103645
9.85702e-05
9.30305e-05
8.71286e-05
8.10704e-05
7.49946e-05
6.89526e-05
6.30114e-05
5.72581e-05
5.17577e-05
4.65591e-05
4.1699e-05
3.7182e-05
3.29955e-05
2.91459e-05
2.56515e-05
2.25051e-05
1.96717e-05
1.7122e-05
1.48464e-05
1.28367e-05
1.107e-05
9.51595e-06
8.15049e-06
6.95825e-06
5.92543e-06
5.0345e-06
4.26601e-06
3.60345e-06
3.03475e-06
2.54988e-06
2.13826e-06
1.78891e-06
1.49241e-06
1.24164e-06
1.03078e-06
8.54149e-07
7.06276e-07
5.82539e-07
4.79303e-07
3.93549e-07
3.22532e-07
2.63788e-07
2.15264e-07
1.75285e-07
1.42448e-07
1.15539e-07
9.35229e-08
7.55469e-08
6.09061e-08
4.90093e-08
3.93588e-08
3.15442e-08
2.52311e-08
2.01443e-08
1.6054e-08
1.27696e-08
1.01367e-08
8.03091e-09
6.351e-09
5.01369e-09
3.9508e-09
3.10722e-09
2.43908e-09
1.91109e-09
1.4948e-09
1.16711e-09
9.09596e-10
7.07589e-10
5.49411e-10
4.2593e-10
3.2969e-10
2.547e-10
1.96417e-10
1.5125e-10
1.16309e-10
8.933e-11
6.85396e-11
5.25407e-11
4.02487e-11
3.0825e-11
2.36212e-11
1.81325e-11
1.39644e-11
1.081e-11
8.43207e-12
6.64837e-12
5.31866e-12
4.3356e-12
3.61723e-12
3.10095e-12
2.73872e-12
2.49453e-12
2.32883e-12
2.24428e-12
2.21508e-12
2.2194e-12
2.25333e-12
2.31137e-12
2.38797e-12
2.47907e-12
2.58214e-12
2.69565e-12
2.81849e-12
2.94949e-12
3.08747e-12
3.23153e-12
3.38141e-12
3.5373e-12
3.6996e-12
3.86846e-12
4.04378e-12
4.22552e-12
4.41375e-12
4.60867e-12
4.81066e-12
5.02049e-12
5.23889e-12
5.46629e-12
5.70277e-12
5.94832e-12
6.20302e-12
6.46754e-12
6.7428e-12
7.0302e-12
7.33158e-12
7.64795e-12
7.97918e-12
8.32573e-12
8.68952e-12
9.07189e-12
9.47516e-12
9.90349e-12
1.03589e-11
1.0846e-11
1.13697e-11
1.19348e-11
1.25524e-11
1.32333e-11
1.39918e-11
1.4853e-11
1.58448e-11
1.70071e-11
1.84151e-11
2.01534e-11
2.2379e-11
2.53685e-11
2.94271e-11
3.57748e-11
4.44817e-11
6.23902e-11
9.00107e-11
1.64051e-10
3.58324e-10
8.55454e-10
2.50135e-09
7.67269e-09
4.78464e-08
0.0904052
0.025084
0.0031347
0.000417008
0.000118534
8.70188e-05
9.00676e-05
9.74017e-05
0.000106952
0.000116634
0.000126068
0.000134875
0.0001427
0.0001492
0.000154036
0.000157088
0.000158353
0.000157939
0.00015553
0.000151534
0.000146316
0.000139909
0.00013259
0.000124658
0.000116309
0.000107743
9.91578e-05
9.06785e-05
8.24102e-05
7.44849e-05
6.70044e-05
5.99981e-05
5.34645e-05
4.7417e-05
4.18782e-05
3.68541e-05
3.23237e-05
2.82489e-05
2.45933e-05
2.13337e-05
1.84526e-05
1.59208e-05
1.36973e-05
1.17448e-05
1.00384e-05
8.55866e-06
7.28193e-06
6.18074e-06
5.23075e-06
4.41399e-06
3.71604e-06
3.12246e-06
2.61831e-06
2.19004e-06
1.82688e-06
1.52038e-06
1.26297e-06
1.04726e-06
8.66495e-07
7.15137e-07
5.88851e-07
4.83962e-07
3.97071e-07
3.25128e-07
2.65618e-07
2.16527e-07
1.76175e-07
1.43087e-07
1.1599e-07
9.38296e-08
7.57515e-08
6.1043e-08
4.90997e-08
3.94155e-08
3.15779e-08
2.52509e-08
2.01555e-08
1.60589e-08
1.27699e-08
1.01341e-08
8.02725e-09
6.34735e-09
5.01034e-09
3.94751e-09
3.10408e-09
2.43608e-09
1.90844e-09
1.49251e-09
1.16515e-09
9.07978e-10
7.06192e-10
5.4823e-10
4.24948e-10
3.28858e-10
2.53988e-10
1.95819e-10
1.50751e-10
1.15879e-10
8.89418e-11
6.81684e-11
5.21673e-11
3.98563e-11
3.04001e-11
2.31531e-11
1.76122e-11
1.33841e-11
1.01631e-11
7.71265e-12
5.85005e-12
4.43507e-12
3.36101e-12
2.54654e-12
1.92971e-12
1.46334e-12
1.11113e-12
8.45047e-13
6.43759e-13
4.91391e-13
3.7615e-13
2.89221e-13
2.23902e-13
1.74916e-13
1.38139e-13
1.10467e-13
8.96267e-14
7.39648e-14
6.22445e-14
5.35085e-14
4.70135e-14
4.22028e-14
3.86837e-14
3.60682e-14
3.42999e-14
3.3253e-14
3.26344e-14
3.23707e-14
3.23898e-14
3.26577e-14
3.31443e-14
3.38131e-14
3.46325e-14
3.55814e-14
3.66489e-14
3.78277e-14
3.91148e-14
4.05046e-14
4.19944e-14
4.35884e-14
4.52918e-14
4.7104e-14
4.90225e-14
5.10557e-14
5.32098e-14
5.54955e-14
5.79459e-14
6.05791e-14
6.34265e-14
6.65359e-14
6.99447e-14
7.37747e-14
7.81712e-14
8.33169e-14
8.96383e-14
9.76598e-14
1.08321e-13
1.23535e-13
1.46319e-13
1.84403e-13
2.57914e-13
4.32439e-13
8.61919e-13
2.04963e-12
5.31035e-12
1.58573e-11
4.49914e-11
1.48209e-10
4.33311e-10
1.34571e-09
4.14866e-09
1.28807e-08
0.114663
0.0351076
0.00425878
0.000511435
0.000143366
0.000111698
0.000120826
0.000135897
0.000153444
0.00017125
0.000188107
0.000203161
0.000215738
0.000225321
0.000231381
0.000234054
0.000233602
0.000230014
0.000223231
0.000214367
0.000203709
0.000191705
0.000178831
0.000165487
0.000151981
0.000138596
0.000125594
0.000113176
0.000101461
9.0513e-05
8.03634e-05
7.10336e-05
6.25371e-05
5.48661e-05
4.79802e-05
4.1817e-05
3.63179e-05
3.14402e-05
2.71454e-05
2.33829e-05
2.0091e-05
1.72118e-05
1.47025e-05
1.25298e-05
1.06584e-05
9.04791e-06
7.66092e-06
6.46905e-06
5.4505e-06
4.58435e-06
3.84891e-06
3.22424e-06
2.69426e-06
2.24634e-06
1.86944e-06
1.55315e-06
1.28795e-06
1.06568e-06
8.79751e-07
7.24796e-07
5.96123e-07
4.89466e-07
4.01099e-07
3.27963e-07
2.67599e-07
2.17954e-07
1.77224e-07
1.4384e-07
1.16506e-07
9.41755e-08
7.59855e-08
6.12032e-08
4.9206e-08
3.94823e-08
3.16186e-08
2.52755e-08
2.01695e-08
1.60651e-08
1.27709e-08
1.01325e-08
8.02478e-09
6.34459e-09
5.00724e-09
3.94407e-09
3.10061e-09
2.43285e-09
1.90569e-09
1.49021e-09
1.16315e-09
9.06314e-10
7.04698e-10
5.46932e-10
4.23931e-10
3.27942e-10
2.53144e-10
1.95122e-10
1.50205e-10
1.15452e-10
8.86061e-11
6.79036e-11
5.19583e-11
3.96907e-11
3.0268e-11
2.30467e-11
1.75258e-11
1.33134e-11
1.01052e-11
7.66473e-12
5.80952e-12
4.40003e-12
3.33033e-12
2.51967e-12
1.90644e-12
1.44346e-12
1.09407e-12
8.29985e-13
6.29878e-13
4.78044e-13
3.62935e-13
2.7595e-13
2.10461e-13
1.61199e-13
1.24028e-13
9.5851e-14
7.44191e-14
5.81057e-14
4.56937e-14
3.62383e-14
2.8993e-14
2.33925e-14
1.90282e-14
1.5612e-14
1.29296e-14
1.0811e-14
9.12445e-15
7.77833e-15
6.70795e-15
5.85851e-15
5.18254e-15
4.6385e-15
4.18912e-15
3.81063e-15
3.4936e-15
3.23271e-15
3.02241e-15
2.85113e-15
2.70572e-15
2.57688e-15
2.46138e-15
2.36129e-15
2.2758e-15
2.20238e-15
2.13755e-15
2.07749e-15
2.02387e-15
1.97737e-15
1.93839e-15
1.91487e-15
1.91089e-15
1.93196e-15
2.00091e-15
2.15094e-15
2.50254e-15
3.16922e-15
4.58071e-15
7.71946e-15
1.5072e-14
3.35064e-14
8.18516e-14
2.14542e-13
5.82427e-13
1.65971e-12
4.70967e-12
1.42419e-11
4.1105e-11
1.27294e-10
3.71494e-10
1.06681e-09
3.14222e-09
8.29785e-09
0.136399
0.045528
0.0053504
0.000607328
0.000208132
0.000191783
0.000219639
0.000255286
0.000292626
0.000328474
0.000359857
0.000383796
0.000399818
0.000407748
0.000407433
0.000401891
0.000389493
0.000372727
0.000352555
0.000329901
0.000305759
0.000280891
0.000255944
0.000231512
0.000208066
0.000185904
0.000165223
0.000146146
0.000128699
0.000112866
9.86234e-05
8.59138e-05
7.46225e-05
6.46172e-05
5.57876e-05
4.8041e-05
4.12801e-05
3.53987e-05
3.029e-05
2.58582e-05
2.20236e-05
1.872e-05
1.58861e-05
1.34599e-05
1.13814e-05
9.6016e-06
8.08336e-06
6.79493e-06
5.70411e-06
4.7798e-06
3.99629e-06
3.3341e-06
2.77706e-06
2.30985e-06
1.91808e-06
1.58957e-06
1.31457e-06
1.0851e-06
8.94228e-07
7.35767e-07
6.04336e-07
4.95422e-07
4.05315e-07
3.30968e-07
2.69807e-07
2.19596e-07
1.78411e-07
1.44663e-07
1.17064e-07
9.45596e-08
7.62549e-08
6.13885e-08
4.93271e-08
3.95582e-08
3.16657e-08
2.53044e-08
2.01859e-08
1.60728e-08
1.27729e-08
1.01318e-08
8.02278e-09
6.34168e-09
5.00348e-09
3.94e-09
3.09664e-09
2.42947e-09
1.90284e-09
1.48783e-09
1.1611e-09
9.04457e-10
7.03103e-10
5.45563e-10
4.22734e-10
3.26901e-10
2.52283e-10
1.94445e-10
1.49665e-10
1.1501e-10
8.82427e-11
6.76081e-11
5.17202e-11
3.95009e-11
3.0119e-11
2.29315e-11
1.74367e-11
1.32441e-11
1.00503e-11
7.6195e-12
5.77071e-12
4.36617e-12
3.30097e-12
2.49481e-12
1.88615e-12
1.42742e-12
1.08155e-12
8.20206e-13
6.22188e-13
4.71979e-13
3.58199e-13
2.7233e-13
2.07721e-13
1.59079e-13
1.22307e-13
9.43751e-14
7.31162e-14
5.69621e-14
4.47214e-14
3.54422e-14
2.83585e-14
2.28873e-14
1.86145e-14
1.5257e-14
1.26102e-14
1.05157e-14
8.8504e-15
7.52365e-15
6.46988e-15
5.63173e-15
4.96147e-15
4.4176e-15
3.96481e-15
3.58338e-15
3.26633e-15
3.00831e-15
2.80081e-15
2.63006e-15
2.48114e-15
2.34548e-15
2.22205e-15
2.11479e-15
2.02389e-15
1.94571e-15
1.87617e-15
1.8116e-15
1.75363e-15
1.70063e-15
1.65393e-15
1.62666e-15
1.62368e-15
1.638e-15
1.69813e-15
1.85516e-15
2.21062e-15
2.9361e-15
4.43628e-15
7.73802e-15
1.54661e-14
3.46749e-14
8.44919e-14
2.1899e-13
5.88055e-13
1.64032e-12
4.60611e-12
1.34029e-11
3.83762e-11
1.11817e-10
3.21845e-10
8.74754e-10
2.43856e-09
6.23325e-09
0.154617
0.0547164
0.00622267
0.000821493
0.000486098
0.000549219
0.000646633
0.000758912
0.000863216
0.000951507
0.00100904
0.00102166
0.00100785
0.000964069
0.000904322
0.000835365
0.000764089
0.00069345
0.000625183
0.000560241
0.000499254
0.000442504
0.000390174
0.0003424
0.000299146
0.000260273
0.000225624
0.000194983
0.000168033
0.00014444
0.000123885
0.000106039
9.05769e-05
7.72232e-05
6.57436e-05
5.59028e-05
4.74666e-05
4.0235e-05
3.40514e-05
2.8783e-05
2.43043e-05
2.04985e-05
1.72646e-05
1.45183e-05
1.21902e-05
1.02224e-05
8.56334e-06
7.16508e-06
5.98537e-06
4.99062e-06
4.1547e-06
3.45492e-06
2.86975e-06
2.37992e-06
1.96986e-06
1.62751e-06
1.34274e-06
1.1064e-06
9.10287e-07
7.47608e-07
6.12864e-07
5.01526e-07
4.09759e-07
3.34273e-07
2.72258e-07
2.21361e-07
1.79643e-07
1.45513e-07
1.1766e-07
9.49848e-08
7.65544e-08
6.15905e-08
4.94576e-08
3.96412e-08
3.17185e-08
2.53373e-08
2.02046e-08
1.60816e-08
1.27758e-08
1.01313e-08
8.02018e-09
6.33777e-09
4.99874e-09
3.93532e-09
3.09239e-09
2.42583e-09
1.89988e-09
1.48514e-09
1.15878e-09
9.02458e-10
7.01289e-10
5.44085e-10
4.21541e-10
3.25848e-10
2.51389e-10
1.93731e-10
1.49094e-10
1.14542e-10
8.7857e-11
6.72892e-11
5.14584e-11
3.92898e-11
2.99534e-11
2.28048e-11
1.7341e-11
1.31711e-11
9.99238e-12
7.57117e-12
5.72891e-12
4.32982e-12
3.26982e-12
2.4688e-12
1.86488e-12
1.41011e-12
1.0674e-12
8.08651e-13
6.1292e-13
4.64778e-13
3.52829e-13
2.68462e-13
2.04946e-13
1.56994e-13
1.20612e-13
9.2899e-14
7.17981e-14
5.58105e-14
4.37638e-14
3.46811e-14
2.77684e-14
2.24267e-14
1.82453e-14
1.49513e-14
1.23519e-14
1.0299e-14
8.67423e-15
7.38628e-15
6.36432e-15
5.54782e-15
4.88994e-15
4.35155e-15
3.90223e-15
3.52674e-15
3.2199e-15
2.97485e-15
2.77881e-15
2.61643e-15
2.4721e-15
2.33936e-15
2.21949e-15
2.11711e-15
2.03276e-15
1.96195e-15
1.90054e-15
1.84546e-15
1.7966e-15
1.75234e-15
1.7207e-15
1.71238e-15
1.71811e-15
1.74958e-15
1.84178e-15
2.04897e-15
2.48943e-15
3.30805e-15
4.98085e-15
8.59995e-15
1.69092e-14
3.71519e-14
8.87721e-14
2.2551e-13
5.95822e-13
1.62405e-12
4.49724e-12
1.26459e-11
3.57091e-11
9.92753e-11
2.79476e-10
7.29512e-10
1.93727e-09
5.13074e-09
0.170027
0.0610573
0.00702012
0.00178653
0.00174315
0.00221685
0.00261066
0.00313576
0.00356697
0.00388064
0.0040094
0.00377053
0.00348322
0.00304716
0.00261278
0.00219594
0.00182876
0.00151974
0.00126688
0.00106064
0.000891267
0.000750646
0.000632887
0.000533726
0.000449885
0.000378894
0.000318834
0.000268073
0.000225198
0.000189054
0.000158659
0.000133117
0.000111641
9.35925e-05
7.84375e-05
6.57114e-05
5.50209e-05
4.60524e-05
3.85424e-05
3.22519e-05
2.69721e-05
2.25376e-05
1.88187e-05
1.57057e-05
1.31012e-05
1.09209e-05
9.09483e-06
7.56545e-06
6.28613e-06
5.21835e-06
4.32859e-06
3.58706e-06
2.96845e-06
2.4526e-06
2.02361e-06
1.66796e-06
1.37341e-06
1.12927e-06
9.26948e-07
7.59602e-07
6.21582e-07
5.07986e-07
4.14571e-07
3.37794e-07
2.74767e-07
2.23121e-07
1.80879e-07
1.46394e-07
1.18295e-07
9.54357e-08
7.68643e-08
6.17961e-08
4.95916e-08
3.97287e-08
3.17758e-08