/*--------------------------------*- C++ -*----------------------------------*\
| =========                 |                                                 |
| \\      /  F ield         | OpenFOAM: The Open Source CFD Toolbox           |
|  \\    /   O peration     | Version:  2.1.x                                 |
|   \\  /    A nd           | Web:      www.OpenFOAM.org                      |
|    \\/     M anipulation  |                                                 |
\*---------------------------------------------------------------------------*/
FoamFile
{
    version     2.0;
    format      ascii;
    class       volScalarField;
    location    "0.002";
    object      nuSgs;
}
// * * * * * * * * * * * * * * * * * * * * * * * * * * * * * * * * * * * * * //

dimensions      [0 2 -1 0 0 0 0];

internalField   nonuniform List<scalar> 
12225
(
0.000198852
0.000195926
0.000166913
0.000139677
0.000119625
0.000116136
0.000104405
9.92553e-05
9.73837e-05
0.000101847
9.5728e-05
9.35384e-05
0.000100124
0.000101364
0.00010573
9.85452e-05
0.000108915
0.000105258
0.000108611
0.000153595
0.000154691
0.000148168
0.000133868
0.000129808
0.000121705
0.000110796
0.000106772
0.000105104
9.84523e-05
9.44409e-05
9.37509e-05
9.18408e-05
9.08381e-05
8.91807e-05
8.31144e-05
7.86614e-05
3.25285e-05
7.89483e-05
9.72872e-05
0.000105141
0.000103938
0.00010263
0.000100901
9.67981e-05
9.18967e-05
8.34998e-05
7.99391e-05
7.64552e-05
6.83928e-05
6.16727e-05
6.09191e-05
5.99792e-05
5.52689e-05
4.51878e-05
7.57657e-06
2.89367e-05
4.67536e-05
5.62509e-05
5.99883e-05
5.79084e-05
6.00931e-05
6.32267e-05
5.94783e-05
5.20663e-05
5.28193e-05
5.13463e-05
4.34217e-05
3.48593e-05
3.44644e-05
3.38506e-05
3.05803e-05
2.36659e-05
1.55423e-06
8.92968e-06
1.64002e-05
2.45685e-05
2.51796e-05
2.37219e-05
2.73213e-05
3.16779e-05
2.93508e-05
2.73767e-05
2.88766e-05
2.74306e-05
2.23674e-05
1.73757e-05
1.6887e-05
1.61692e-05
1.37808e-05
1.04499e-05
4.88189e-07
2.41841e-06
5.2037e-06
8.24746e-06
8.23415e-06
7.54807e-06
8.89744e-06
1.18706e-05
1.16008e-05
1.09181e-05
1.09167e-05
1.03754e-05
8.64001e-06
6.52101e-06
5.42727e-06
4.7067e-06
3.90121e-06
3.01415e-06
4.82832e-07
8.19144e-07
1.40843e-06
2.33599e-06
2.44944e-06
2.18964e-06
2.46067e-06
3.81536e-06
3.80023e-06
3.46781e-06
3.32849e-06
3.28597e-06
2.85832e-06
2.02085e-06
1.71055e-06
1.7158e-06
1.6497e-06
1.48541e-06
4.20956e-07
4.29608e-07
5.03883e-07
6.23588e-07
6.70906e-07
6.59068e-07
7.05213e-07
8.88567e-07
1.02113e-06
1.00023e-06
9.70044e-07
9.37198e-07
9.27353e-07
8.76054e-07
8.66748e-07
9.35963e-07
9.19533e-07
9.4509e-07
3.90761e-07
4.51064e-07
4.77659e-07
4.95076e-07
5.64973e-07
5.689e-07
5.66411e-07
6.5904e-07
7.33768e-07
7.10167e-07
7.114e-07
8.66846e-07
8.69591e-07
8.29747e-07
8.22271e-07
9.46323e-07
1.11736e-06
1.21708e-06
4.16019e-07
4.40673e-07
5.4436e-07
5.66276e-07
5.4289e-07
5.39985e-07
5.25047e-07
5.12079e-07
5.43944e-07
6.24966e-07
6.66126e-07
6.89694e-07
7.89333e-07
9.60256e-07
1.10524e-06
1.11432e-06
1.15933e-06
1.18996e-06
4.81826e-07
5.61665e-07
5.47993e-07
5.5996e-07
6.96455e-07
6.95792e-07
6.49188e-07
6.38574e-07
6.27627e-07
5.9505e-07
5.91036e-07
7.31093e-07
1.02124e-06
1.05052e-06
1.07539e-06
1.19727e-06
1.48378e-06
1.7684e-06
5.83815e-07
5.35966e-07
5.06913e-07
5.19255e-07
6.07514e-07
6.62764e-07
6.52774e-07
6.06939e-07
5.81999e-07
5.9913e-07
6.49275e-07
7.08064e-07
8.64789e-07
1.19059e-06
1.33033e-06
1.38164e-06
1.34011e-06
1.46562e-06
5.4777e-07
5.73507e-07
5.75213e-07
5.74035e-07
5.90519e-07
5.78477e-07
5.55499e-07
5.49114e-07
5.62848e-07
5.74019e-07
5.96074e-07
6.83367e-07
9.31504e-07
1.04718e-06
1.09858e-06
1.15803e-06
1.19668e-06
1.45906e-06
6.41225e-07
6.34987e-07
6.14052e-07
5.95725e-07
5.85953e-07
5.80542e-07
5.86244e-07
5.81606e-07
5.77878e-07
5.89923e-07
6.29935e-07
7.11741e-07
8.69045e-07
1.11818e-06
1.26747e-06
1.33549e-06
1.39727e-06
1.41824e-06
7.23086e-07
7.75753e-07
7.33531e-07
6.99679e-07
6.86209e-07
6.67123e-07
6.39093e-07
6.19363e-07
6.14953e-07
6.46916e-07
6.95658e-07
7.79977e-07
9.81282e-07
1.19722e-06
1.33612e-06
1.43573e-06
1.48497e-06
1.65738e-06
7.14262e-07
7.34786e-07
7.40578e-07
7.64884e-07
7.99603e-07
7.82368e-07
7.5664e-07
7.39254e-07
7.34554e-07
7.5669e-07
8.14486e-07
9.39734e-07
1.23608e-06
1.59817e-06
1.81284e-06
1.89915e-06
1.90715e-06
1.86167e-06
7.29201e-07
7.16592e-07
7.22165e-07
7.53081e-07
8.90035e-07
9.09036e-07
8.64367e-07
8.00903e-07
7.77051e-07
7.75065e-07
8.30235e-07
1.03709e-06
1.50424e-06
1.8047e-06
1.91964e-06
1.93678e-06
1.90939e-06
1.86891e-06
7.25593e-07
7.56381e-07
7.96393e-07
8.26341e-07
8.26382e-07
7.85377e-07
7.56252e-07
7.46228e-07
7.35495e-07
7.38304e-07
7.89322e-07
9.851e-07
1.35735e-06
1.55781e-06
1.63365e-06
1.64265e-06
1.62178e-06
1.58902e-06
6.82432e-07
7.25766e-07
7.64893e-07
7.60301e-07
7.42125e-07
7.06962e-07
6.92276e-07
6.90932e-07
6.84737e-07
6.87175e-07
7.16268e-07
8.16317e-07
1.06372e-06
1.25575e-06
1.3536e-06
1.39039e-06
1.39026e-06
1.36732e-06
6.93569e-07
6.93919e-07
7.02825e-07
7.00986e-07
6.85804e-07
6.72808e-07
6.82296e-07
7.08087e-07
7.39838e-07
7.53844e-07
7.54508e-07
7.77146e-07
8.72458e-07
1.10012e-06
1.24569e-06
1.31636e-06
1.33877e-06
1.32419e-06
6.2991e-07
6.60031e-07
6.53983e-07
6.37615e-07
6.29408e-07
6.3233e-07
6.64671e-07
6.81886e-07
6.96484e-07
7.07519e-07
7.19654e-07
7.62591e-07
9.02708e-07
1.11372e-06
1.23173e-06
1.2864e-06
1.29819e-06
1.27906e-06
5.98213e-07
5.92481e-07
5.83928e-07
5.97593e-07
6.7393e-07
7.67848e-07
7.88437e-07
7.73447e-07
7.3561e-07
6.91422e-07
6.79073e-07
7.11648e-07
8.7108e-07
1.0104e-06
1.06496e-06
1.07783e-06
1.06847e-06
1.04739e-06
5.38854e-07
5.61123e-07
6.44863e-07
7.21208e-07
7.17703e-07
6.71626e-07
6.44055e-07
6.52729e-07
6.87877e-07
7.06275e-07
7.4297e-07
8.39614e-07
9.62282e-07
1.03181e-06
1.0561e-06
1.05207e-06
1.03351e-06
1.00889e-06
5.25048e-07
5.58734e-07
7.15003e-07
9.37679e-07
9.63273e-07
1.00054e-06
1.14756e-06
1.5789e-06
1.85659e-06
1.92603e-06
1.94609e-06
1.9447e-06
1.90901e-06
1.85575e-06
1.76156e-06
1.61627e-06
1.46255e-06
1.29408e-06
5.3268e-07
7.31387e-07
1.50923e-06
2.90609e-06
3.25313e-06
3.63487e-06
4.61729e-06
6.58031e-06
7.0217e-06
6.88633e-06
6.69121e-06
6.41193e-06
5.96428e-06
5.37954e-06
4.72944e-06
4.06545e-06
3.44815e-06
2.8726e-06
5.52661e-07
2.62336e-06
6.92824e-06
1.22297e-05
1.30767e-05
1.40968e-05
1.73387e-05
2.13802e-05
2.16806e-05
2.11115e-05
2.02496e-05
1.88082e-05
1.70627e-05
1.51269e-05
1.3172e-05
1.13094e-05
9.6485e-06
8.16288e-06
1.86684e-06
1.2018e-05
2.69242e-05
3.88182e-05
4.07763e-05
4.30349e-05
4.94636e-05
5.24161e-05
5.13566e-05
4.95555e-05
4.65567e-05
4.31083e-05
3.94444e-05
3.57461e-05
3.20105e-05
2.86349e-05
2.54424e-05
2.27416e-05
1.27899e-05
4.66506e-05
8.03457e-05
9.27669e-05
9.46574e-05
9.87465e-05
0.000101271
9.91264e-05
9.55882e-05
8.97794e-05
8.36172e-05
7.84608e-05
7.31282e-05
6.85547e-05
6.36101e-05
5.98644e-05
5.53677e-05
5.25198e-05
6.55178e-05
0.000146201
0.000167815
0.000164523
0.000158723
0.000150758
0.000142302
0.00013386
0.000126137
0.00011909
0.000113208
0.000107993
0.000103106
9.85788e-05
9.4094e-05
9.02591e-05
8.60378e-05
8.28487e-05
0.000206555
0.000241981
0.000222423
0.000188561
0.000164188
0.000145869
0.000131071
0.000120731
0.000114465
0.000110373
0.000107094
0.000103372
0.000100038
9.64526e-05
9.3515e-05
9.01816e-05
8.73118e-05
8.41126e-05
6.90854e-07
5.91512e-07
6.15116e-07
7.09245e-07
8.67489e-07
1.06599e-06
1.31049e-06
1.60322e-06
1.94583e-06
2.33982e-06
2.78658e-06
3.28757e-06
3.84411e-06
4.45741e-06
5.1286e-06
5.85843e-06
6.64779e-06
7.49727e-06
8.40704e-06
9.37709e-06
1.04074e-05
1.14975e-05
1.26464e-05
1.38528e-05
1.51157e-05
1.6433e-05
1.78028e-05
1.92227e-05
2.06901e-05
2.22017e-05
2.37547e-05
2.53466e-05
2.69736e-05
2.86306e-05
3.03147e-05
3.20235e-05
3.37534e-05
3.54987e-05
3.72558e-05
3.9023e-05
4.07973e-05
4.25734e-05
4.43479e-05
4.61193e-05
4.78857e-05
4.96431e-05
5.13883e-05
5.31203e-05
5.48382e-05
5.65393e-05
5.82213e-05
5.98834e-05
6.15252e-05
6.31458e-05
6.47435e-05
6.63176e-05
6.78685e-05
6.93959e-05
7.08993e-05
7.23781e-05
7.3833e-05
7.52642e-05
7.66717e-05
7.80556e-05
7.94164e-05
8.07548e-05
8.20711e-05
8.33656e-05
8.46388e-05
8.58917e-05
8.71249e-05
8.83386e-05
8.95335e-05
9.07104e-05
9.18701e-05
9.3013e-05
9.41395e-05
9.52474e-05
9.63383e-05
9.74134e-05
9.84737e-05
9.95199e-05
0.000100553
0.000101574
0.000102584
0.000103583
0.000104572
0.000105552
0.000106523
0.000107485
0.000108441
0.000109389
0.00011033
0.000111265
0.000112195
0.000113119
0.000114038
0.000114953
0.000115864
0.000116772
0.000117676
0.000118578
0.000119476
0.000120372
0.000121266
0.000122159
0.00012305
0.000123939
0.000124827
0.000125715
0.000126601
0.000127488
0.000128374
0.000129259
0.000130145
0.000131031
0.000131917
0.000132804
0.000133691
0.000134579
0.000135467
0.000136357
0.000137247
0.000138138
0.000139031
0.000139924
0.000140819
0.000141715
0.000142612
0.000143511
0.000144411
0.000145312
0.000146214
0.000147118
0.000148024
0.000148931
0.000149839
0.000150748
0.000151659
0.000152571
0.000153484
0.000154399
0.000155315
0.000156231
0.000157149
0.000158068
0.000158987
0.000159908
0.000160829
0.000161751
0.000162673
0.000163596
0.000164519
0.000165442
0.000166365
0.000167287
0.000168209
0.000169131
0.00017005
0.000170969
0.000171885
0.000172797
0.000173706
0.00017461
0.000175507
0.000176396
0.000177274
0.000178139
0.000178985
0.000179808
0.000180601
0.00018135
0.000182035
0.000182641
0.000183127
0.000183523
0.000183535
0.000183373
0.000182735
0.000179664
2.09661e-06
1.10774e-06
6.404e-07
5.48455e-07
5.42236e-07
5.48454e-07
5.59515e-07
5.72237e-07
5.87144e-07
6.04874e-07
6.26091e-07
6.515e-07
6.81801e-07
7.17659e-07
7.59735e-07
8.08648e-07
8.64953e-07
9.29068e-07
1.00139e-06
1.08232e-06
1.17215e-06
1.27111e-06
1.37951e-06
1.49764e-06
1.62578e-06
1.76406e-06
1.91279e-06
2.07222e-06
2.24257e-06
2.42389e-06
2.61633e-06
2.8201e-06
3.0352e-06
3.26138e-06
3.49861e-06
3.74704e-06
4.00655e-06
4.27663e-06
4.55691e-06
4.84734e-06
5.14777e-06
5.45755e-06
5.77602e-06
6.1029e-06
6.43797e-06
6.78067e-06
7.1302e-06
7.48601e-06
7.84784e-06
8.21528e-06
8.58757e-06
8.9641e-06
9.34446e-06
9.72837e-06
1.01153e-05
1.05046e-05
1.08959e-05
1.1289e-05
1.16834e-05
1.20788e-05
1.24748e-05
1.2871e-05
1.32674e-05
1.36637e-05
1.40597e-05
1.4455e-05
1.48496e-05
1.52434e-05
1.56362e-05
1.6028e-05
1.64186e-05
1.6808e-05
1.71962e-05
1.75831e-05
1.79688e-05
1.83534e-05
1.8736e-05
1.91331e-05
1.95412e-05
1.99578e-05
2.03814e-05
2.08099e-05
2.1242e-05
2.1677e-05
2.21143e-05
2.25529e-05
2.29915e-05
2.34292e-05
2.3866e-05
2.43024e-05
2.47379e-05
2.51722e-05
2.56046e-05
2.60353e-05
2.64651e-05
2.68939e-05
2.73215e-05
2.77475e-05
2.81723e-05
2.85962e-05
2.90196e-05
2.94426e-05
2.98649e-05
3.02864e-05
3.07076e-05
3.1129e-05
3.15512e-05
3.19743e-05
3.23981e-05
3.28226e-05
3.32482e-05
3.36753e-05
3.41045e-05
3.45358e-05
3.49692e-05
3.54048e-05
3.58426e-05
3.62831e-05
3.67265e-05
3.71731e-05
3.76229e-05
3.80761e-05
3.85327e-05
3.89929e-05
3.94565e-05
3.9924e-05
4.03956e-05
4.08716e-05
4.13521e-05
4.18371e-05
4.23265e-05
4.28204e-05
4.33189e-05
4.38224e-05
4.43311e-05
4.48453e-05
4.53647e-05
4.58893e-05
4.64192e-05
4.69544e-05
4.74954e-05
4.80423e-05
4.85952e-05
4.9154e-05
4.97188e-05
5.02894e-05
5.08662e-05
5.14492e-05
5.20388e-05
5.26351e-05
5.32379e-05
5.38474e-05
5.44635e-05
5.50863e-05
5.57159e-05
5.63525e-05
5.69963e-05
5.76473e-05
5.83059e-05
5.89718e-05
5.96452e-05
6.03261e-05
6.10146e-05
6.17108e-05
6.2415e-05
6.31274e-05
6.3848e-05
6.4577e-05
6.53153e-05
6.60594e-05
6.68266e-05
6.75631e-05
6.84358e-05
6.90226e-05
7.02484e-05
7.06427e-05
7.24584e-05
7.25451e-05
7.52759e-05
8.17011e-05
4.48435e-06
2.13664e-06
9.43344e-07
6.10272e-07
5.52363e-07
5.4992e-07
5.55128e-07
5.62549e-07
5.7011e-07
5.77706e-07
5.85178e-07
5.92366e-07
5.99107e-07
6.05214e-07
6.10532e-07
6.14948e-07
6.18322e-07
6.20533e-07
6.21427e-07
6.20975e-07
6.19143e-07
6.15761e-07
6.11011e-07
6.0515e-07
5.98046e-07
5.89609e-07
5.80065e-07
5.70414e-07
5.59781e-07
5.48023e-07
5.35978e-07
5.24312e-07
5.13187e-07
5.02686e-07
4.93353e-07
4.8562e-07
4.79785e-07
4.75222e-07
4.74207e-07
4.75555e-07
4.79173e-07
4.8547e-07
4.94383e-07
5.05848e-07
5.19773e-07
5.3603e-07
5.54455e-07
5.74864e-07
5.97128e-07
6.21131e-07
6.4674e-07
6.73805e-07
7.02195e-07
7.31836e-07
7.62663e-07
7.94584e-07
8.27495e-07
8.61332e-07
8.96056e-07
9.31619e-07
9.67947e-07
1.00498e-06
1.04269e-06
1.08103e-06
1.11998e-06
1.15948e-06
1.1995e-06
1.24001e-06
1.281e-06
1.32243e-06
1.36427e-06
1.40651e-06
1.44913e-06
1.49212e-06
1.53547e-06
1.57916e-06
1.62316e-06
1.66762e-06
1.71285e-06
1.75895e-06
1.8061e-06
1.85432e-06
1.9036e-06
1.95395e-06
2.00561e-06
2.05742e-06
2.11822e-06
2.18553e-06
2.25804e-06
2.33446e-06
2.41348e-06
2.49427e-06
2.57614e-06
2.65864e-06
2.74159e-06
2.82469e-06
2.90767e-06
2.99036e-06
3.0727e-06
3.15472e-06
3.23642e-06
3.31777e-06
3.39872e-06
3.47929e-06
3.55957e-06
3.63973e-06
3.71987e-06
3.80001e-06
3.88014e-06
3.96029e-06
4.04058e-06
4.12116e-06
4.20212e-06
4.28351e-06
4.36533e-06
4.4476e-06
4.5304e-06
4.61384e-06
4.69803e-06
4.78302e-06
4.86888e-06
4.95561e-06
5.04324e-06
5.13181e-06
5.22139e-06
5.31207e-06
5.40396e-06
5.49715e-06
5.59166e-06
5.68752e-06
5.7847e-06
5.88327e-06
5.98333e-06
6.08498e-06
6.18834e-06
6.29345e-06
6.40031e-06
6.5089e-06
6.61925e-06
6.73149e-06
6.84572e-06
6.96204e-06
7.08046e-06
7.20102e-06
7.32372e-06
7.44859e-06
7.57574e-06
7.70532e-06
7.83742e-06
7.9721e-06
8.10939e-06
8.24935e-06
8.39202e-06
8.53748e-06
8.68586e-06
8.83727e-06
8.99192e-06
9.14993e-06
9.31146e-06
9.47669e-06
9.64577e-06
9.81897e-06
9.99664e-06
1.01791e-05
1.03669e-05
1.05608e-05
1.07613e-05
1.09696e-05
1.11877e-05
1.14142e-05
1.16641e-05
1.19021e-05
1.22482e-05
1.24198e-05
1.30527e-05
1.31728e-05
1.43351e-05
1.4417e-05
1.62736e-05
2.10542e-05
7.65385e-06
3.57033e-06
1.41805e-06
7.32895e-07
5.81667e-07
5.64419e-07
5.69368e-07
5.78207e-07
5.87852e-07
5.97502e-07
6.06969e-07
6.16045e-07
6.24515e-07
6.32122e-07
6.38652e-07
6.43994e-07
6.47963e-07
6.5033e-07
6.50788e-07
6.49479e-07
6.46547e-07
6.41561e-07
6.34512e-07
6.25758e-07
6.15348e-07
6.03068e-07
5.8923e-07
5.73834e-07
5.57344e-07
5.39914e-07
5.21746e-07
5.02947e-07
4.8341e-07
4.633e-07
4.43042e-07
4.22784e-07
4.02385e-07
3.81924e-07
3.61756e-07
3.42078e-07
3.22792e-07
3.03863e-07
2.85485e-07
2.67847e-07
2.5094e-07
2.34704e-07
2.19156e-07
2.04447e-07
1.90553e-07
1.7744e-07
1.65115e-07
1.53625e-07
1.43008e-07
1.3326e-07
1.24364e-07
1.16312e-07
1.09115e-07
1.02778e-07
9.72847e-08
9.26305e-08
8.87149e-08
8.56559e-08
8.30147e-08
8.10709e-08
8.02519e-08
7.98759e-08
7.98976e-08
8.02129e-08
8.08802e-08
8.18585e-08
8.31019e-08
8.45713e-08
8.62336e-08
8.80597e-08
9.00247e-08
9.21097e-08
9.43009e-08
9.65857e-08
9.89583e-08
1.01413e-07
1.03955e-07
1.06585e-07
1.09303e-07
1.12113e-07
1.15016e-07
1.17995e-07
1.21146e-07
1.24528e-07
1.28443e-07
1.32235e-07
1.38555e-07
1.46293e-07
1.54922e-07
1.64086e-07
1.73555e-07
1.83179e-07
1.92864e-07
2.02551e-07
2.12204e-07
2.21799e-07
2.31323e-07
2.40768e-07
2.50127e-07
2.59404e-07
2.68603e-07
2.77736e-07
2.86811e-07
2.9583e-07
3.04795e-07
3.13714e-07
3.22602e-07
3.31474e-07
3.40339e-07
3.49199e-07
3.58056e-07
3.66914e-07
3.75789e-07
3.847e-07
3.93659e-07
4.02672e-07
4.11741e-07
4.20865e-07
4.3005e-07
4.3931e-07
4.48658e-07
4.5811e-07
4.67676e-07
4.77363e-07
4.87171e-07
4.97105e-07
5.07172e-07
5.17384e-07
5.27754e-07
5.38298e-07
5.4903e-07
5.59955e-07
5.71071e-07
5.82381e-07
5.93896e-07
6.05633e-07
6.17609e-07
6.29836e-07
6.42315e-07
6.55049e-07
6.68041e-07
6.81299e-07
6.94847e-07
7.08713e-07
7.22914e-07
7.37451e-07
7.52334e-07
7.67578e-07
7.83189e-07
7.99192e-07
8.15626e-07
8.32509e-07
8.49891e-07
8.67807e-07
8.86299e-07
9.05438e-07
9.25276e-07
9.45906e-07
9.67455e-07
9.90044e-07
1.01386e-06
1.03921e-06
1.06632e-06
1.09562e-06
1.12797e-06
1.16298e-06
1.20571e-06
1.24574e-06
1.31925e-06
1.34539e-06
1.50743e-06
1.5351e-06
1.86006e-06
1.92328e-06
2.47846e-06
4.13453e-06
1.12722e-05
5.30642e-06
2.01548e-06
9.06946e-07
6.24886e-07
5.83317e-07
5.87579e-07
5.977e-07
6.10609e-07
6.23406e-07
6.35956e-07
6.47966e-07
6.5917e-07
6.69239e-07
6.77833e-07
6.84784e-07
6.89939e-07
6.93067e-07
6.93992e-07
6.9252e-07
6.89018e-07
6.83058e-07
6.74842e-07
6.64818e-07
6.52813e-07
6.3864e-07
6.22818e-07
6.0589e-07
5.87665e-07
5.68016e-07
5.47368e-07
5.26175e-07
5.04549e-07
4.82518e-07
4.60223e-07
4.37845e-07
4.1558e-07
3.93628e-07
3.72067e-07
3.50862e-07
3.30087e-07
3.09959e-07
2.9061e-07
2.71961e-07
2.53939e-07
2.36639e-07
2.20214e-07
2.04637e-07
1.89837e-07
1.75784e-07
1.6253e-07
1.50098e-07
1.38435e-07
1.27473e-07
1.17197e-07
1.07611e-07
9.86991e-08
9.04143e-08
8.27119e-08
7.55666e-08
6.89597e-08
6.28657e-08
5.72499e-08
5.20783e-08
4.73255e-08
4.29653e-08
3.89743e-08
3.53274e-08
3.20001e-08
2.89703e-08
2.62178e-08
2.37238e-08
2.14705e-08
1.94406e-08
1.76187e-08
1.59907e-08
1.45441e-08
1.32674e-08
1.21494e-08
1.11795e-08
1.03479e-08
9.64551e-09
9.06175e-09
8.5947e-09
8.18762e-09
7.87832e-09
7.70884e-09
7.59349e-09
7.53847e-09
7.52358e-09
7.59556e-09
7.70551e-09
8.11231e-09
8.70068e-09
9.39976e-09
1.01682e-08
1.09802e-08
1.18194e-08
1.26748e-08
1.35384e-08
1.44054e-08
1.52727e-08
1.61383e-08
1.70011e-08
1.78604e-08
1.87155e-08
1.9566e-08
2.04113e-08
2.12514e-08
2.20867e-08
2.29182e-08
2.37466e-08
2.45723e-08
2.53947e-08
2.62136e-08
2.70298e-08
2.78447e-08
2.86602e-08
2.94774e-08
3.02968e-08
3.11175e-08
3.19393e-08
3.27631e-08
3.35907e-08
3.44241e-08
3.52646e-08
3.61126e-08
3.69679e-08
3.78307e-08
3.87017e-08
3.95822e-08
4.0474e-08
4.13784e-08
4.22963e-08
4.3229e-08
4.41767e-08
4.51396e-08
4.61181e-08
4.71141e-08
4.81295e-08
4.91656e-08
5.02232e-08
5.13023e-08
5.24028e-08
5.35255e-08
5.46715e-08
5.58437e-08
5.70458e-08
5.82793e-08
5.95437e-08
6.08398e-08
6.21701e-08
6.35353e-08
6.49393e-08
6.63873e-08
6.78815e-08
6.94287e-08
7.10341e-08
7.27032e-08
7.44481e-08
7.62777e-08
7.82063e-08
8.02558e-08
8.24465e-08
8.48092e-08
8.73956e-08
9.02492e-08
9.34449e-08
9.71356e-08
1.0127e-07
1.06707e-07
1.11778e-07
1.22449e-07
1.26318e-07
1.50913e-07
1.58289e-07
2.10751e-07
2.33489e-07
3.37729e-07
7.34774e-07
1.50072e-05
7.27149e-06
2.68638e-06
1.11091e-06
6.8046e-07
6.0908e-07
6.13087e-07
6.26168e-07
6.44191e-07
6.61933e-07
6.79283e-07
6.95779e-07
7.11029e-07
7.24577e-07
7.35971e-07
7.45028e-07
7.51576e-07
7.5532e-07
7.56161e-07
7.53837e-07
7.49099e-07
7.41336e-07
7.30736e-07
7.1791e-07
7.02939e-07
6.85809e-07
6.66923e-07
6.4656e-07
6.24762e-07
6.01872e-07
5.78398e-07
5.5444e-07
5.2989e-07
5.04989e-07
4.80219e-07
4.55783e-07
4.31593e-07
4.07656e-07
3.84203e-07
3.61464e-07
3.39492e-07
3.18235e-07
2.97687e-07
2.77938e-07
2.59104e-07
2.41212e-07
2.24191e-07
2.07985e-07
1.92626e-07
1.78174e-07
1.64613e-07
1.51862e-07
1.39864e-07
1.28627e-07
1.18163e-07
1.08434e-07
9.93728e-08
9.09364e-08
8.31113e-08
7.58802e-08
6.92051e-08
6.3042e-08
5.73572e-08
5.21257e-08
4.73219e-08
4.29159e-08
3.88782e-08
3.51829e-08
3.1806e-08
2.87234e-08
2.59126e-08
2.3353e-08
2.10255e-08
1.89115e-08
1.69927e-08
1.52531e-08
1.36785e-08
1.22551e-08
1.09697e-08
9.80957e-09
8.76367e-09
7.82211e-09
6.97569e-09
6.21563e-09
5.53354e-09
4.92208e-09
4.37479e-09
3.88591e-09
3.44964e-09
3.06076e-09
2.71477e-09
2.40743e-09
2.13535e-09
1.89983e-09
1.69858e-09
1.53017e-09
1.39379e-09
1.28856e-09
1.21322e-09
1.16642e-09
1.14082e-09
1.14308e-09
1.15927e-09
1.18965e-09
1.23059e-09
1.27934e-09
1.33375e-09
1.3922e-09
1.45353e-09
1.51697e-09
1.58193e-09
1.64802e-09
1.71491e-09
1.78232e-09
1.85e-09
1.91787e-09
1.98596e-09
2.05434e-09
2.12304e-09
2.19205e-09
2.26121e-09
2.33043e-09
2.39976e-09
2.46937e-09
2.53945e-09
2.61009e-09
2.68126e-09
2.7529e-09
2.82498e-09
2.89759e-09
2.9709e-09
3.04508e-09
3.12024e-09
3.19644e-09
3.27372e-09
3.35212e-09
3.43166e-09
3.51242e-09
3.59461e-09
3.67842e-09
3.76396e-09
3.85124e-09
3.94023e-09
4.0309e-09
4.12335e-09
4.21775e-09
4.3144e-09
4.41366e-09
4.51569e-09
4.62037e-09
4.72776e-09
4.83816e-09
4.95169e-09
5.06874e-09
5.18996e-09
5.31558e-09
5.4463e-09
5.58275e-09
5.72553e-09
5.87615e-09
6.03579e-09
6.20612e-09
6.38997e-09
6.58999e-09
6.80996e-09
7.05673e-09
7.33632e-09
7.65886e-09
8.04519e-09
8.4919e-09
9.11085e-09
9.70387e-09
1.10212e-08
1.16672e-08
1.46965e-08
1.64631e-08
2.31648e-08
2.94128e-08
4.71556e-08
1.27204e-07
1.85804e-05
9.3909e-06
3.39309e-06
1.3153e-06
7.41538e-07
6.43138e-07
6.49417e-07
6.68719e-07
6.94711e-07
7.20248e-07
7.44936e-07
7.68098e-07
7.89178e-07
8.07539e-07
8.22507e-07
8.33881e-07
8.41623e-07
8.45583e-07
8.45594e-07
8.41216e-07
8.33591e-07
8.22311e-07
8.07871e-07
7.90832e-07
7.71194e-07
7.49144e-07
7.25339e-07
7.00235e-07
6.7394e-07
6.46649e-07
6.18709e-07
5.90418e-07
5.62049e-07
5.33864e-07
5.05975e-07
4.78394e-07
4.51271e-07
4.24903e-07
3.99443e-07
3.74817e-07
3.50961e-07
3.27998e-07
3.06097e-07
2.85284e-07
2.65462e-07
2.46571e-07
2.28648e-07
2.11759e-07
1.95893e-07
1.80973e-07
1.66926e-07
1.5374e-07
1.41429e-07
1.29974e-07
1.19309e-07
1.09364e-07
1.00109e-07
9.15386e-08
8.36234e-08
7.6311e-08
6.95507e-08
6.33114e-08
5.75719e-08
5.23032e-08
4.74678e-08
4.30313e-08
3.89671e-08
3.52515e-08
3.18592e-08
2.8764e-08
2.59427e-08
2.33751e-08
2.10415e-08
1.89222e-08
1.69989e-08
1.52558e-08
1.36788e-08
1.22537e-08
1.09665e-08
9.80453e-09
8.75707e-09
7.81436e-09
6.96699e-09
6.20584e-09
5.52248e-09
4.90963e-09
4.36076e-09
3.86988e-09
3.43119e-09
3.03944e-09
2.68991e-09
2.37833e-09
2.10119e-09
1.85491e-09
1.63589e-09
1.44144e-09
1.26918e-09
1.11672e-09
9.81979e-10
8.63053e-10
7.58191e-10
6.65847e-10
5.84687e-10
5.13575e-10
4.51518e-10
3.97622e-10
3.51084e-10
3.11204e-10
2.77373e-10
2.49057e-10
2.25779e-10
2.071e-10
1.9259e-10
1.81798e-10
1.74285e-10
1.69091e-10
1.6678e-10
1.66352e-10
1.67162e-10
1.69081e-10
1.7188e-10
1.75334e-10
1.79276e-10
1.83597e-10
1.88227e-10
1.93115e-10
1.9821e-10
2.03464e-10
2.0884e-10
2.14327e-10
2.19925e-10
2.25642e-10
2.31479e-10
2.37427e-10
2.43482e-10
2.49642e-10
2.55908e-10
2.62287e-10
2.68795e-10
2.75448e-10
2.8225e-10
2.89198e-10
2.96285e-10
3.0351e-10
3.10882e-10
3.18418e-10
3.26144e-10
3.34093e-10
3.42281e-10
3.50693e-10
3.59329e-10
3.68222e-10
3.77388e-10
3.86862e-10
3.96713e-10
4.06964e-10
4.17681e-10
4.28936e-10
4.40787e-10
4.53402e-10
4.66926e-10
4.81547e-10
4.9761e-10
5.15464e-10
5.35591e-10
5.58925e-10
5.86375e-10
6.19624e-10
6.61521e-10
7.14278e-10
7.89629e-10
8.82098e-10
1.04743e-09
1.25787e-09
1.69871e-09
2.50869e-09
3.87917e-09
6.63061e-09
1.16422e-08
2.92407e-08
2.17936e-05
1.15658e-05
4.10886e-06
1.50354e-06
8.04564e-07
6.92253e-07
7.07235e-07
7.38595e-07
7.77216e-07
8.15043e-07
8.50886e-07
8.83732e-07
9.12712e-07
9.37035e-07
9.55898e-07
9.69139e-07
9.76835e-07
9.79326e-07
9.75634e-07
9.66675e-07
9.53496e-07
9.35912e-07
9.14535e-07
8.90079e-07
8.62963e-07
8.33663e-07
8.02723e-07
7.70473e-07
7.37216e-07
7.03449e-07
6.69638e-07
6.35982e-07
6.02556e-07
5.6953e-07
5.37187e-07
5.0577e-07
4.75387e-07
4.46031e-07
4.17685e-07
3.90434e-07
3.64429e-07
3.3973e-07
3.16255e-07
2.93908e-07
2.72702e-07
2.52709e-07
2.33938e-07
2.163e-07
1.99701e-07
1.84108e-07
1.69532e-07
1.55959e-07
1.43325e-07
1.31549e-07
1.20578e-07
1.10392e-07
1.00971e-07
9.22717e-08
8.42296e-08
7.67921e-08
6.99298e-08
6.36208e-08
5.78306e-08
5.25147e-08
4.76334e-08
4.31586e-08
3.90668e-08
3.53313e-08
3.19219e-08
2.88115e-08
2.59782e-08
2.34017e-08
2.10612e-08
1.8936e-08
1.7008e-08
1.52619e-08
1.36827e-08
1.22557e-08
1.09667e-08
9.8033e-09
8.7551e-09
7.81212e-09
6.96466e-09
6.20326e-09
5.51969e-09
4.90661e-09
4.35775e-09
3.86692e-09
3.42831e-09
3.03673e-09
2.68725e-09
2.37576e-09
2.09876e-09
1.85256e-09
1.6336e-09
1.43924e-09
1.26707e-09
1.11464e-09
9.79821e-10
8.60684e-10
7.55455e-10
6.62541e-10
5.8057e-10
5.0836e-10
4.44859e-10
3.89095e-10
3.40184e-10
2.97332e-10
2.59808e-10
2.26963e-10
1.9823e-10
1.73118e-10
1.51197e-10
1.32098e-10
1.15486e-10
1.01044e-10
8.84834e-11
7.75629e-11
6.80886e-11
5.99068e-11
5.28898e-11
4.69094e-11
4.18349e-11
3.7547e-11
3.39476e-11
3.09593e-11
2.85149e-11
2.65474e-11
2.49888e-11
2.37765e-11
2.28604e-11
2.21629e-11
2.171e-11
2.14627e-11
2.13461e-11
2.13415e-11
2.14273e-11
2.15951e-11
2.18336e-11
2.21304e-11
2.24745e-11
2.28581e-11
2.32767e-11
2.37268e-11
2.42065e-11
2.47132e-11
2.5245e-11
2.58023e-11
2.63856e-11
2.69938e-11
2.76251e-11
2.82808e-11
2.89616e-11
2.96694e-11
3.04114e-11
3.11908e-11
3.20135e-11
3.28891e-11
3.38236e-11
3.4842e-11
3.59721e-11
3.72461e-11
3.87435e-11
4.05511e-11
4.28173e-11
4.5832e-11
4.99765e-11
5.61685e-11
6.63848e-11
8.57915e-11
1.2095e-10
1.86409e-10
3.0022e-10
5.19827e-10
8.77372e-10
1.59691e-09
2.73785e-09
4.83681e-09
8.51914e-09
1.50774e-08
2.45283e-05
1.36719e-05
4.78568e-06
1.66408e-06
8.85288e-07
7.85402e-07
8.20553e-07
8.74094e-07
9.32824e-07
9.89683e-07
1.0416e-06
1.08691e-06
1.12455e-06
1.15379e-06
1.17375e-06
1.18506e-06
1.18838e-06
1.18374e-06
1.17051e-06
1.15131e-06
1.12649e-06
1.09684e-06
1.06327e-06
1.02658e-06
9.874e-07
9.46361e-07
9.04159e-07
8.61413e-07
8.18575e-07
7.75954e-07
7.33805e-07
6.92394e-07
6.52016e-07
6.12924e-07
5.75242e-07
5.38967e-07
5.04095e-07
4.70716e-07
4.38961e-07
4.08872e-07
3.80365e-07
3.53326e-07
3.27732e-07
3.03636e-07
2.81049e-07
2.59876e-07
2.39988e-07
2.21323e-07
2.03882e-07
1.8765e-07
1.72555e-07
1.58497e-07
1.45404e-07
1.33242e-07
1.21984e-07
1.11582e-07
1.01971e-07
9.30855e-08
8.48767e-08
7.73131e-08
7.03633e-08
6.39838e-08
5.81253e-08
5.27451e-08
4.78124e-08
4.33018e-08
3.91839e-08
3.54248e-08
3.19934e-08
2.88651e-08
2.60188e-08
2.34328e-08
2.10842e-08
1.89522e-08
1.70191e-08
1.52694e-08
1.36876e-08
1.22581e-08
1.09671e-08
9.80255e-09
8.75376e-09
7.81044e-09
6.96252e-09
6.20057e-09
5.51661e-09
4.90337e-09
4.3546e-09
3.86394e-09
3.42536e-09
3.03394e-09
2.6844e-09
2.37295e-09
2.09625e-09
1.84999e-09
1.63089e-09
1.43668e-09
1.26477e-09
1.11258e-09
9.77965e-10
8.59007e-10
7.53936e-10
6.61159e-10
5.79303e-10
5.07188e-10
4.43763e-10
3.88063e-10
3.39211e-10
2.96403e-10
2.58903e-10
2.26061e-10
1.9732e-10
1.72197e-10
1.50276e-10
1.31189e-10
1.14584e-10
1.00124e-10
8.75053e-11
7.64796e-11
6.68544e-11
5.84825e-11
5.12363e-11
4.49821e-11
3.95802e-11
3.49036e-11
3.08507e-11
2.7345e-11
2.43238e-11
2.17275e-11
1.94932e-11
1.75624e-11
1.58872e-11
1.44338e-11
1.31748e-11
1.20832e-11
1.11342e-11
1.03109e-11
9.60378e-12
9.00176e-12
8.49164e-12
8.0576e-12
7.68059e-12
7.34787e-12
7.05724e-12
6.80946e-12
6.60443e-12
6.43431e-12
6.28759e-12
6.15537e-12
6.03489e-12
5.92964e-12
5.83977e-12
5.76304e-12
5.69546e-12
5.63288e-12
5.57743e-12
5.53069e-12
5.49385e-12
5.47776e-12
5.48892e-12
5.53612e-12
5.65095e-12
5.87462e-12
6.35111e-12
7.16073e-12
8.62167e-12
1.12114e-11
1.56959e-11
2.34562e-11
3.6757e-11
5.96819e-11
9.86174e-11
1.66992e-10
2.82084e-10
4.92077e-10
8.38223e-10
1.47944e-09
2.53469e-09
4.30629e-09
7.41347e-09
1.20846e-08
2.67401e-05
1.55551e-05
5.3593e-06
1.81307e-06
1.06906e-06
1.0321e-06
1.10992e-06
1.2022e-06
1.29292e-06
1.37587e-06
1.44618e-06
1.49948e-06
1.53636e-06
1.55726e-06
1.56225e-06
1.55709e-06
1.53831e-06
1.51014e-06
1.4739e-06
1.43082e-06
1.38236e-06
1.32966e-06
1.27376e-06
1.21575e-06
1.15664e-06
1.0972e-06
1.03805e-06
9.79754e-07
9.22687e-07
8.67145e-07
8.13474e-07
7.61954e-07
7.12652e-07
6.65524e-07
6.20593e-07
5.77952e-07
5.37655e-07
4.99659e-07
4.63852e-07
4.30111e-07
3.98361e-07
3.68582e-07
3.40753e-07
3.14775e-07
2.90488e-07
2.67764e-07
2.46562e-07
2.26866e-07
2.086e-07
1.91634e-07
1.7585e-07
1.61194e-07
1.47637e-07
1.35125e-07
1.23571e-07
1.12892e-07
1.03028e-07
9.3937e-08
8.55775e-08
7.79e-08
7.08496e-08
6.43749e-08
5.84326e-08
5.29884e-08
4.80109e-08
4.34658e-08
3.93158e-08
3.55268e-08
3.20708e-08
2.89246e-08
2.60654e-08
2.34686e-08
2.11104e-08
1.89706e-08
1.7032e-08
1.52783e-08
1.36933e-08
1.22611e-08
1.09681e-08
9.80227e-09
8.75271e-09
7.80868e-09
6.95994e-09
6.19738e-09
5.51308e-09
4.89996e-09
4.35135e-09
3.86085e-09
3.42233e-09
3.03082e-09
2.68136e-09
2.36997e-09
2.09329e-09
1.84705e-09
1.62811e-09
1.43417e-09
1.26249e-09
1.11045e-09
9.75956e-10
8.57135e-10
7.52205e-10
6.59572e-10
5.77871e-10
5.05914e-10
4.42631e-10
3.87049e-10
3.38285e-10
2.95525e-10
2.58035e-10
2.2519e-10
1.96449e-10
1.71347e-10
1.49474e-10
1.30456e-10
1.13925e-10
9.95309e-11
8.69685e-11
7.59921e-11
6.64158e-11
5.80962e-11
5.09e-11
4.46838e-11
3.93033e-11
3.46329e-11
3.05788e-11
2.70739e-11
2.40626e-11
2.14859e-11
1.92767e-11
1.73692e-11
1.57108e-11
1.42659e-11
1.3008e-11
1.19137e-11
1.09619e-11
1.01363e-11
9.42674e-12
8.82009e-12
8.30221e-12
7.85646e-12
7.46456e-12
7.11707e-12
6.81458e-12
6.55867e-12
6.34654e-12
6.16777e-12
6.00808e-12
5.8587e-12
5.71921e-12
5.59576e-12
5.49011e-12
5.39867e-12
5.31673e-12
5.23958e-12
5.16995e-12
5.10597e-12
5.04967e-12
5.02176e-12
5.03168e-12
5.06838e-12
5.17466e-12
5.42277e-12
5.93412e-12
6.8577e-12
8.45343e-12
1.11967e-11
1.58762e-11
2.3844e-11
3.73339e-11
6.02907e-11
9.90941e-11
1.66012e-10
2.78993e-10
4.77353e-10
8.10026e-10
1.38661e-09
2.3594e-09
3.90021e-09
6.53109e-09
1.04731e-08
2.84646e-05
1.70364e-05
5.77448e-06
2.11159e-06
1.63768e-06
1.75052e-06
1.90922e-06
2.07931e-06
2.2289e-06
2.35205e-06
2.43316e-06
2.4583e-06
2.45132e-06
2.40582e-06
2.33785e-06
2.25399e-06
2.16227e-06
2.06621e-06
1.968e-06
1.86895e-06
1.77006e-06
1.67196e-06
1.57527e-06
1.4807e-06
1.38875e-06
1.29983e-06
1.2144e-06
1.13284e-06
1.05529e-06
9.81802e-07
9.12434e-07
8.47114e-07
7.85666e-07
7.2799e-07
6.74066e-07
6.23762e-07
5.76801e-07
5.32926e-07
4.92003e-07
4.53946e-07
4.18613e-07
3.85806e-07
3.55326e-07
3.27e-07
3.00702e-07
2.76342e-07
2.53823e-07
2.33003e-07
2.13717e-07
1.95845e-07
1.79327e-07
1.64109e-07
1.50097e-07
1.37173e-07
1.2524e-07
1.14242e-07
1.04134e-07
9.48605e-08
8.63476e-08
7.85288e-08
7.13518e-08
6.47738e-08
5.87549e-08
5.32543e-08
4.82299e-08
4.36414e-08
3.94526e-08
3.56321e-08
3.21532e-08
2.89902e-08
2.6117e-08
2.35075e-08
2.11386e-08
1.89908e-08
1.70464e-08
1.52884e-08
1.36997e-08
1.22646e-08
1.09694e-08
9.8021e-09
8.75135e-09
7.80633e-09
6.95667e-09
6.19372e-09
5.50931e-09
4.89629e-09
4.34796e-09
3.85736e-09
3.41891e-09
3.02747e-09
2.6779e-09
2.36676e-09
2.09034e-09
1.84408e-09
1.62522e-09
1.43153e-09
1.26007e-09
1.10818e-09
9.73821e-10
8.55112e-10
7.50297e-10
6.57805e-10
5.76276e-10
5.04511e-10
4.4141e-10
3.85976e-10
3.37306e-10