/*--------------------------------*- C++ -*----------------------------------*\
| =========                 |                                                 |
| \\      /  F ield         | OpenFOAM: The Open Source CFD Toolbox           |
|  \\    /   O peration     | Version:  2.1.x                                 |
|   \\  /    A nd           | Web:      www.OpenFOAM.org                      |
|    \\/     M anipulation  |                                                 |
\*---------------------------------------------------------------------------*/
FoamFile
{
    version     2.0;
    format      ascii;
    class       volScalarField;
    location    "0.002";
    object      p;
}
// * * * * * * * * * * * * * * * * * * * * * * * * * * * * * * * * * * * * * //

dimensions      [0 2 -2 0 0 0 0];

internalField   nonuniform List<scalar> 
12225
(
1175.78
1156.91
1144.9
1136.6
1127.82
1119.37
1111.45
1101.47
1091.7
1085.48
1077.15
1065.07
1056.49
1050.63
1040.85
1026.82
1014.41
1000.68
1172.15
1156.8
1145.09
1136.72
1127.89
1119.36
1111.49
1101.5
1091.56
1085.47
1077.31
1065.02
1056.4
1050.73
1041.22
1027.09
1014.34
1003.62
1170.42
1157.32
1145.81
1137.15
1128.11
1119.53
1111.74
1101.63
1091.53
1085.43
1077.44
1065.06
1056.38
1050.82
1041.48
1027.71
1016.09
1007.24
1170.16
1158.15
1146.77
1137.68
1128.57
1119.78
1111.83
1101.93
1091.95
1085.42
1077.39
1065.5
1056.87
1050.97
1041.7
1029.48
1018.89
1011.02
1171.7
1158.89
1147.77
1138.43
1129.15
1120.11
1112.08
1102.54
1092.56
1085.47
1077.56
1066.38
1057.67
1051.52
1042.45
1031.37
1022.05
1014.78
1171.99
1159.71
1148.95
1139.25
1129.89
1120.57
1112.28
1103.29
1093.48
1085.65
1077.77
1067.61
1058.85
1052.26
1043.63
1033.5
1025
1018.42
1169.02
1160.34
1150.1
1140.22
1130.61
1121.09
1112.69
1103.89
1094.3
1085.98
1078.12
1068.69
1059.92
1053.07
1045.18
1035.74
1027.68
1021.6
1167.51
1161.03
1151.23
1141.21
1131.3
1121.61
1112.97
1104.47
1095.1
1086.42
1078.52
1069.63
1061.02
1054.04
1046.54
1037.8
1030.26
1024.33
1167.76
1162.04
1152.34
1142.12
1132.05
1122.17
1113.37
1105.01
1095.84
1086.93
1078.87
1070.52
1062.22
1054.97
1047.8
1039.84
1032.3
1026.45
1170.9
1163.72
1153.69
1143.24
1132.84
1122.85
1113.92
1105.51
1096.6
1087.67
1079.48
1071.48
1063.45
1056.23
1049.4
1041.88
1034.85
1029.3
1175.19
1166.27
1155.35
1144.48
1133.9
1123.71
1114.53
1106.21
1097.53
1088.47
1080.19
1072.61
1065.03
1057.76
1050.99
1044.13
1037.48
1031.61
1186.07
1169.83
1157.23
1145.89
1134.97
1124.6
1115.44
1107.02
1098.38
1089.6
1081.34
1073.75
1066.53
1059.63
1053
1046.42
1040.28
1035.05
1192.31
1173.01
1159.18
1147.33
1136.22
1125.73
1116.38
1107.91
1099.52
1090.82
1082.48
1075.2
1068.45
1061.58
1055
1049
1043.2
1037.58
1194.65
1175.29
1160.88
1148.74
1137.42
1126.82
1117.46
1109.06
1100.68
1092.12
1084.09
1076.93
1070.23
1063.75
1057.57
1051.58
1046.02
1041.25
1192.79
1175.85
1161.8
1149.8
1138.54
1127.95
1118.62
1110.23
1101.97
1093.63
1085.7
1078.69
1072.35
1066.14
1060.01
1054.31
1049.16
1044.22
1188.13
1174.16
1161.71
1150.36
1139.35
1128.89
1119.68
1111.44
1103.33
1095.14
1087.45
1080.69
1074.53
1068.55
1062.75
1057.29
1052.23
1047.67
1179.4
1171.66
1161.06
1150.54
1139.92
1129.65
1120.61
1112.54
1104.57
1096.6
1089.17
1082.62
1076.66
1070.9
1065.28
1060
1055.17
1050.71
1184.23
1173.44
1161.64
1150.6
1139.95
1129.89
1121.09
1113.25
1105.5
1097.75
1090.57
1084.25
1078.49
1072.91
1067.49
1062.39
1057.72
1053.4
1196.44
1177.14
1162.3
1150.35
1139.61
1129.67
1121.03
1113.42
1105.95
1098.45
1091.48
1085.36
1079.79
1074.38
1069.1
1064.15
1059.6
1055.4
1198.04
1175.54
1160.5
1148.86
1138.45
1128.82
1120.51
1113.21
1106.01
1098.74
1091.96
1086.03
1080.64
1075.38
1070.24
1065.4
1060.95
1056.84
1187.37
1169.53
1156.93
1146.5
1136.74
1127.57
1119.67
1112.73
1105.82
1098.79
1092.21
1086.46
1081.21
1076.08
1071.04
1066.28
1061.92
1057.87
1165.74
1161.23
1152.67
1143.74
1134.78
1126.2
1118.75
1112.13
1105.47
1098.65
1092.27
1086.68
1081.56
1076.52
1071.56
1066.88
1062.58
1058.58
1160.66
1156.44
1149.26
1141.28
1132.98
1124.92
1117.87
1111.52
1105.07
1098.45
1092.24
1086.77
1081.74
1076.77
1071.88
1067.28
1063.03
1059.07
1159.81
1153.39
1146.57
1139.12
1131.33
1123.77
1117.05
1110.91
1104.63
1098.19
1092.15
1086.79
1081.82
1076.91
1072.09
1067.55
1063.35
1059.42
1156.69
1150.94
1144.48
1137.36
1129.96
1122.83
1116.38
1110.33
1104.16
1097.93
1092.07
1086.8
1081.86
1077
1072.23
1067.74
1063.56
1059.65
1150.99
1148.92
1142.8
1135.78
1128.72
1122.02
1115.77
1109.77
1103.72
1097.67
1091.97
1086.75
1081.82
1076.99
1072.29
1067.84
1063.68
1059.78
1150.33
1147.99
1141.49
1134.49
1127.78
1121.42
1115.23
1109.16
1103.23
1097.47
1091.96
1086.76
1081.81
1077
1072.36
1067.93
1063.76
1059.83
1154.01
1147.9
1140.46
1133.4
1127.04
1121
1114.87
1108.68
1102.77
1097.24
1091.91
1086.72
1081.72
1076.94
1072.35
1067.95
1063.76
1059.81
1156.59
1147.97
1139.43
1132.42
1126.41
1120.62
1114.6
1108.44
1102.61
1097.22
1091.95
1086.77
1081.75
1076.97
1072.39
1068
1063.79
1059.77
1163.44
1148.84
1139.34
1132.24
1126.23
1120.45
1114.47
1108.39
1102.65
1097.24
1091.97
1086.79
1081.77
1076.99
1072.42
1068.03
1063.84
1059.86
958.625
958.619
958.599
958.567
958.522
958.462
958.386
958.294
958.183
958.053
957.9
957.722
957.519
957.286
957.022
956.724
956.39
956.017
955.601
955.142
954.636
954.081
953.476
952.818
952.105
951.337
950.512
949.63
948.689
947.689
946.63
945.512
944.335
943.099
941.806
940.455
939.047
937.583
936.065
934.492
932.867
931.19
929.462
927.685
925.859
923.985
922.065
920.1
918.091
916.038
913.943
911.806
909.629
907.412
905.156
902.862
900.531
898.162
895.758
893.318
890.843
888.333
885.79
883.213
880.603
877.96
875.285
872.578
869.84
867.07
864.268
861.437
858.574
855.681
852.758
849.804
846.82
843.807
840.764
837.692
834.59
831.459
828.298
825.108
821.888
818.639
815.36
812.053
808.715
805.349
801.953
798.527
795.072
791.587
788.072
784.527
780.953
777.348
773.713
770.048
766.353
762.627
758.87
755.083
751.264
747.414
743.534
739.621
735.677
731.702
727.694
723.654
719.581
715.476
711.339
707.168
702.964
698.727
694.456
690.151
685.812
681.438
677.031
672.588
668.11
663.598
659.049
654.465
649.845
645.188
640.495
635.765
630.998
626.194
621.351
616.471
611.553
606.596
601.601
596.566
591.492
586.378
581.225
576.031
570.796
565.521
560.204
554.846
549.447
544.005
538.52
532.993
527.423
521.809
516.152
510.451
504.705
498.915
493.081
487.201
481.276
475.306
469.29
463.229
457.122
450.969
444.772
438.53
432.244
425.915
419.546
413.138
406.694
400.224
393.724
387.231
380.709
374.289
367.86
361.726
958.662
958.656
958.637
958.606
958.562
958.505
958.432
958.343
958.235
958.108
957.959
957.786
957.586
957.358
957.098
956.804
956.473
956.102
955.69
955.233
954.729
954.176
953.572
952.914
952.202
951.433
950.607
949.723
948.781
947.779
946.717
945.596
944.416
943.178
941.881
940.526
939.115
937.648
936.126
934.55
932.921
931.241
929.509
927.729
925.9
924.023
922.101
920.133
918.121
916.065
913.968
911.829
909.65
907.431
905.173
902.877
900.544
898.174
895.768
893.327
890.851
888.34
885.796
883.218
880.607
877.963
875.288
872.58
869.841
867.07
864.268
861.436
858.573
855.679
852.756
849.802
846.819
843.806
840.763
837.69
834.588
831.456
828.295
825.105
821.885
818.636
815.357
812.049
808.712
805.345
801.949
798.523
795.068
791.583
788.068
784.523
780.949
777.344
773.709
770.044
766.349
762.623
758.866
755.078
751.26
747.41
743.529
739.617
735.673
731.697
727.689
723.649
719.577
715.472
711.334
707.164
702.96
698.722
694.451
690.147
685.808
681.434
677.027
672.584
668.107
663.594
659.045
654.461
649.841
645.184
640.491
635.761
630.994
626.19
621.348
616.468
611.55
606.593
601.597
596.563
591.489
586.375
581.222
576.028
570.793
565.518
560.202
554.844
549.444
544.002
538.517
532.99
527.42
521.807
516.149
510.448
504.703
498.913
493.078
487.199
481.274
475.303
469.288
463.226
457.119
450.967
444.769
438.527
432.241
425.912
419.541
413.133
406.688
400.215
393.713
387.212
380.691
374.23
367.792
361.469
958.734
958.729
958.712
958.683
958.642
958.589
958.521
958.438
958.337
958.217
958.076
957.91
957.719
957.498
957.246
956.96
956.636
956.272
955.865
955.413
954.913
954.362
953.759
953.103
952.39
951.62
950.792
949.905
948.959
947.952
946.886
945.76
944.574
943.329
942.026
940.665
939.247
937.773
936.245
934.662
933.027
931.34
929.603
927.817
925.982
924.1
922.173
920.2
918.183
916.124
914.022
911.879
909.696
907.474
905.213
902.914
900.578
898.206
895.797
893.354
890.875
888.363
885.816
883.236
880.624
877.979
875.302
872.593
869.852
867.08
864.278
861.444
858.58
855.686
852.762
849.808
846.824
843.81
840.766
837.693
834.59
831.458
828.296
825.105
821.885
818.636
815.357
812.049
808.711
805.344
801.948
798.522
795.066
791.581
788.066
784.521
780.947
777.342
773.707
770.042
766.346
762.62
758.863
755.076
751.257
747.407
743.526
739.614
735.67
731.694
727.686
723.646
719.574
715.469
711.331
707.16
702.956
698.719
694.448
690.143
685.804
681.431
677.023
672.581
668.103
663.591
659.042
654.458
649.838
645.181
640.488
635.758
630.991
626.187
621.345
616.465
611.547
606.59
601.595
596.56
591.486
586.373
581.219
576.025
570.791
565.515
560.199
554.841
549.441
543.999
538.515
532.988
527.418
521.804
516.147
510.446
504.701
498.911
493.076
487.196
481.271
475.301
469.285
463.224
457.116
450.964
444.766
438.523
432.236
425.906
419.535
413.124
406.677
400.2
393.695
387.18
380.651
374.142
367.659
361.18
958.841
958.837
958.821
958.795
958.76
958.712
958.652
958.578
958.487
958.378
958.249
958.096
957.917
957.709
957.469
957.194
956.881
956.527
956.128
955.683
955.189
954.643
954.043
953.387
952.674
951.903
951.072
950.181
949.229
948.216
947.142
946.008
944.814
943.56
942.247
940.877
939.449
937.966
936.428
934.836
933.192
931.496
929.75
927.955
926.112
924.223
922.288
920.308
918.284
916.218
914.111
911.962
909.774
907.546
905.28
902.977
900.637
898.26
895.848
893.401
890.919
888.403
885.854
883.272
880.656
878.009
875.329
872.618
869.876
867.102
864.298
861.463
858.597
855.702
852.776
849.821
846.835
843.82
840.776
837.701
834.598
831.465
828.303
825.111
821.89
818.64
815.361
812.052
808.714
805.346
801.95
798.523
795.067
791.582
788.066
784.521
780.946
777.341
773.706
770.041
766.345
762.619
758.862
755.074
751.255
747.405
743.524
739.612
735.668
731.692
727.684
723.644
719.571
715.466
711.329
707.158
702.954
698.716
694.445
690.141
685.802
681.429
677.021
672.578
668.101
663.588
659.039
654.455
649.835
645.179
640.486
635.756
630.989
626.184
621.342
616.462
611.544
606.588
601.592
596.558
591.484
586.37
581.217
576.023
570.789
565.513
560.197
554.839
549.439
543.997
538.513
532.986
527.416
521.802
516.145
510.444
504.699
498.909
493.074
487.194
481.269
475.299
469.283
463.221
457.113
450.96
444.762
438.518
432.23
425.899
419.526
413.113
406.663
400.18
393.669
387.138
380.594
374.04
367.503
360.912
958.98
958.974
958.96
958.939
958.909
958.871
958.821
958.759
958.682
958.589
958.475
958.339
958.178
957.987
957.764
957.506
957.208
956.867
956.481
956.046
955.56
955.02
954.424
953.77
953.056
952.282
951.447
950.55
949.591
948.569
947.486
946.341
945.135
943.87
942.545
941.162
939.722
938.226
936.675
935.071
933.414
931.707
929.95
928.144
926.29
924.391
922.446
920.456
918.424
916.35
914.234
912.078
909.882
907.648
905.376
903.066
900.72
898.338
895.921
893.469
890.983
888.462
885.909
883.323
880.704
878.053
875.371
872.657
869.912
867.135
864.329
861.491
858.624
855.726
852.799
849.841
846.854
843.838
840.792
837.716
834.611
831.477
828.314
825.121
821.899
818.648
815.368
812.059
808.72
805.352
801.954
798.527
795.071
791.585
788.069
784.523
780.948
777.343
773.707
770.041
766.345
762.619
758.861
755.073
751.254
747.404
743.523
739.611
735.666
731.69
727.682
723.642
719.569
715.464
711.326
707.156
702.952
698.714
694.443
690.138
685.799
681.426
677.018
672.576
668.098
663.585
659.037
654.453
649.833
645.176
640.483
635.753
630.986
626.182
621.34
616.46
611.542
606.585
601.59
596.556
591.482
586.368
581.214
576.021
570.786
565.511
560.195
554.837
549.437
543.995
538.511
532.984
527.414
521.8
516.143
510.442
504.697
498.907
493.072
487.192
481.267
475.296
469.28
463.218
457.11
450.956
444.757
438.513
432.223
425.891
419.515
413.099
406.645
400.155
393.636
387.088
380.524
373.928
367.336
360.663
959.142
959.136
959.123
959.107
959.085
959.057
959.021
958.974
958.916
958.842
958.751
958.637
958.499
958.331
958.131
957.894
957.616
957.294
956.923
956.502
956.026
955.494
954.902
954.25
953.536
952.759
951.919
951.014
950.045
949.012
947.917
946.758
945.538
944.257
942.917
941.518
940.063
938.551
936.985
935.365
933.694
931.972
930.2
928.381
926.514
924.602
922.645
920.644
918.601
916.516
914.391
912.225
910.02
907.778
905.498
903.18
900.827
898.439
896.015
893.557
891.065
888.54
885.981
883.39
880.767
878.112
875.426
872.708
869.959
867.18
864.37
861.53
858.66
855.759
852.829
849.87
846.881
843.862
840.814
837.737
834.63
831.495
828.33
825.136
821.913
818.661
815.38
812.069
808.729
805.36
801.962
798.534
795.077
791.59
788.074
784.527
780.952
777.346
773.71
770.043
766.347
762.62
758.862
755.074
751.255
747.405
743.523
739.61
735.666
731.689
727.681
723.641
719.568
715.463
711.325
707.154
702.95
698.712
694.441
690.136
685.797
681.424
677.016
672.574
668.096
663.583
659.035
654.451
649.83
645.174
640.481
635.751
630.984
626.18
621.338
616.458
611.54
606.583
601.588
596.553
591.479
586.366
581.212
576.019
570.784
565.509
560.193
554.835
549.435
543.993
538.509
532.982
527.412
521.799
516.141
510.44
504.695
498.905
493.07
487.19
481.264
475.293
469.277
463.214
457.106
450.952
444.752
438.506
432.215
425.881
419.502
413.083
406.623
400.126
393.596
387.032
380.443
373.814
367.165
360.427
959.319
959.313
959.302
959.29
959.277
959.262
959.241
959.215
959.179
959.131
959.066
958.982
958.873
958.736
958.565
958.355
958.103
957.804
957.455
957.05
956.588
956.065
955.48
954.83
954.115
953.334
952.486
951.572
950.591
949.544
948.433
947.258
946.021
944.722
943.363
941.945
940.47
938.94
937.355
935.717
934.028
932.289
930.501
928.665
926.783
924.856
922.885
920.871
918.814
916.717
914.58
912.403
910.188
907.935
905.646
903.32
900.958
898.561
896.13
893.665
891.166
888.634
886.07
883.474
880.845
878.185
875.494
872.772
870.019
867.235
864.422
861.578
858.705
855.801
852.868
849.906
846.914
843.893
840.843
837.764
834.655
831.518
828.351
825.156
821.931
818.677
815.395
812.083
808.742
805.372
801.972
798.543
795.085
791.598
788.08
784.534
780.957
777.35
773.714
770.047
766.35
762.623
758.865
755.076
751.256
747.406
743.524
739.611
735.666
731.689
727.681
723.64
719.567
715.462
711.324
707.153
702.949
698.711
694.44
690.135
685.796
681.422
677.014
672.572
668.094
663.581
659.033
654.449
649.828
645.172
640.479
635.749
630.982
626.178
621.336
616.456
611.538
606.581
601.586
596.551
591.477
586.364
581.21
576.017
570.782
565.507
560.191
554.833
549.433
543.991
538.507
532.98
527.41
521.797
516.139
510.438
504.693
498.902
493.067
487.187
481.262
475.291
469.274
463.211
457.102
450.947
444.745
438.499
432.206
425.869
419.488
413.064
406.598
400.093
393.551
386.97
380.357
373.695
366.997
360.209
959.501
959.492
959.482
959.475
959.471
959.469
959.467
959.463
959.456
959.439
959.409
959.361
959.291
959.191
959.058
958.884
958.666
958.397
958.073
957.69
957.245
956.734
956.156
955.509
954.793
954.006
953.149
952.223
951.227
950.164
949.034
947.839
946.581
945.26
943.879
942.439
940.942
939.39
937.783
936.125
934.415
932.656
930.848
928.994
927.095
925.15
923.163
921.133
919.062
916.951
914.8
912.611
910.383
908.119
905.819
903.482
901.111
898.705
896.265
893.792
891.285
888.746
886.175
883.572
880.937
878.271
875.575
872.847
870.089
867.301
864.483
861.636
858.758
855.851
852.915
849.95
846.955
843.931
840.878
837.796
834.685
831.546
828.377
825.179
821.953
818.698
815.413
812.1
808.758
805.386
801.985
798.556
795.096
791.608
788.089
784.542
780.964
777.357
773.72
770.052
766.355
762.627
758.868
755.079
751.259
747.408
743.525
739.612
735.667
731.69
727.681
723.641
719.567
715.462
711.323
707.152
702.948
698.71
694.439
690.134
685.794
681.421
677.013
672.57
668.092
663.579
659.031
654.447
649.826
645.17
640.477
635.747
630.98
626.176
621.334
616.454
611.536
606.579
601.584
596.549
591.475
586.362
581.208
576.015
570.78
565.505
560.189
554.831
549.431
543.989
538.505
532.978
527.408
521.795
516.137
510.436
504.691
498.9
493.065
487.185
481.259
475.288
469.27
463.207
457.097
450.941
444.739
438.49
432.196
425.856
419.472
413.043
406.571
400.057
393.503
386.906
380.269
373.577
366.836
360.003
959.66
959.652
959.642
959.64
959.646
959.659
959.677
959.7
959.722
959.742
959.752
959.753
959.731
959.681
959.596
959.47
959.294
959.064
958.774
958.419
957.995
957.499
956.931
956.287
955.568
954.775
953.907
952.965
951.952
950.869
949.717
948.498
947.215
945.869
944.463
942.997
941.475
939.898
938.267
936.584
934.851
933.07
931.241
929.366
927.446
925.483
923.477
921.43
919.342
917.215
915.049
912.846
910.605
908.328
906.015
903.668
901.285
898.869
896.419
893.937
891.422
888.874
886.295
883.685
881.043
878.371
875.668
872.934
870.171
867.378
864.555
861.702
858.821
855.91
852.969
850
847.002
843.975
840.919
837.834
834.721
831.579
828.407
825.208
821.979
818.722
815.436
812.12
808.776
805.404
802.001
798.57
795.11
791.62
788.101
784.552
780.973
777.365
773.727
770.059
766.36
762.632
758.873
755.083
751.262
747.411
743.528
739.614
735.669
731.691
727.682
723.641
719.568
715.462
711.323
707.152
702.947
698.709
694.438
690.133
685.793
681.42
677.012
672.569
668.091
663.578
659.029
654.445
649.825
645.168
640.475
635.745
630.978
626.174
621.332
616.452
611.534
606.577
601.582
596.547
591.473
586.36
581.206
576.013
570.779
565.503
560.187
554.829
549.429
543.988
538.503
532.976
527.406
521.793
516.136
510.434
504.688
498.898
493.063
487.182
481.256
475.284
469.267
463.202
457.092
450.935
444.732
438.482
432.185
425.843
419.454
413.021
406.542
400.019
393.452
386.839
380.179
373.459
366.681
359.809
959.776
959.766
959.755
959.754
959.767
959.792
959.83
959.879
959.938
960.001
960.063
960.117
960.155
960.177
960.156
960.091
959.974
959.795
959.549
959.23
958.834
958.358
957.8
957.161
956.439
955.637
954.755
953.796
952.762
951.654
950.477
949.231
947.92
946.545
945.11
943.616
942.065
940.46
938.802
937.092
935.334
933.528
931.675
929.777
927.835
925.851
923.825
921.759
919.653
917.509
915.327
913.107
910.852
908.561
906.235
903.874
901.48
899.052
896.592
894.099
891.574
889.017
886.43
883.811
881.162
878.482
875.772
873.032
870.263
867.464
864.636
861.778
858.891
855.976
853.031
850.058
847.056
844.025
840.966
837.878
834.761
831.616
828.442
825.24
822.009
818.75
815.461
812.144
808.798
805.424
802.02
798.587
795.125
791.634
788.114
784.564
780.984
777.375
773.736
770.067
766.368
762.638
758.878
755.088
751.267
747.415
743.532
739.617
735.671
731.694
727.684
723.643
719.569
715.463
711.324
707.152
702.947
698.709
694.438
690.132
685.793
681.419
677.011
672.568
668.09
663.577
659.028
654.444
649.823
645.166
640.473
635.743
630.976
626.172
621.33
616.45
611.532
606.575
601.58
596.545
591.472
586.358
581.205
576.011
570.777
565.501
560.185
554.827
549.428
543.986
538.502
532.975
527.404
521.791
516.134
510.432
504.686
498.896
493.06
487.18
481.253
475.281
469.263
463.198
457.087
450.929
444.724
438.472
432.174
425.828
419.436
412.997
406.511
399.979
393.4
386.771
380.089
373.345
366.534
359.628
959.796
959.786
959.763
959.761
959.774
959.806
959.858
959.931
960.024
960.136
960.26
960.391
960.514
960.619
960.69
960.714
960.677
960.57
960.385
960.114
959.755
959.304
958.761
958.127
957.402
956.589
955.691
954.71
953.651
952.516
951.309
950.032
948.689
947.282
945.815
944.289
942.707
941.071
939.383
937.645
935.859
934.025
932.147
930.224
928.259
926.252
924.205
922.118
919.992
917.829
915.63
913.393
911.122
908.815
906.475
904.101
901.693
899.253
896.781
894.277
891.742
889.175
886.578
883.951
881.293
878.605
875.888
873.141
870.365
867.559
864.725
861.862
858.97
856.049
853.1
850.122
847.116
844.081
841.018
837.926
834.806
831.658
828.481
825.276
822.043
818.781
815.49
812.171
808.823
805.446
802.041
798.607
795.143
791.65
788.129
784.577
780.997
777.386
773.746
770.076
766.376
762.646
758.885
755.094
751.272
747.42
743.536
739.621
735.674
731.696
727.687
723.645
719.571
715.464
711.325
707.153
702.948
698.71
694.438
690.132
685.792
681.418
677.01
672.567
668.089
663.576
659.027
654.442
649.822
645.165
640.472
635.742
630.975
626.17
621.328
616.448
611.53
606.573
601.578
596.544
591.47
586.356
581.203
576.009
570.775
565.5
560.183
554.826
549.426
543.984
538.5
532.973
527.403
521.789
516.132
510.43
504.684
498.894
493.058
487.177
481.25
475.278
469.259
463.194
457.081
450.922
444.716
438.462
432.161
425.813
419.416
412.972
406.48
399.939
393.347
386.703
380.002
373.234
366.395
359.46
959.666
959.66
959.65
959.631
959.607
959.62
959.653
959.723
959.839
960.001
960.204
960.439
960.685
960.923
961.128
961.28
961.361
961.357
961.257
961.054
960.745
960.328
959.805
959.177
958.449
957.623
956.706
955.701
954.613
953.447
952.206
950.895
949.516
948.074
946.571
945.011
943.395
941.726
940.006
938.237
936.421
934.559
932.653
930.704
928.714
926.683
924.613
922.504
920.358
918.175
915.956
913.702
911.413
909.09
906.734
904.345
901.924
899.471
896.986
894.47
891.924
889.347
886.739
884.102
881.435
878.739
876.014
873.259
870.476
867.663
864.822
861.953
859.055
856.129
853.175
850.192
847.181
844.142
841.075
837.979
834.856
831.704
828.524
825.316
822.08
818.815
815.522
812.201
808.851
805.472
802.064
798.628
795.163
791.669
788.145
784.593
781.011
777.399
773.758
770.087
766.386
762.655
758.893
755.101
751.279
747.425
743.541
739.625
735.678
731.7
727.689
723.647
719.573
715.466
711.326
707.154
702.949
698.71
694.438
690.132
685.792
681.418
677.01
672.566
668.088
663.575
659.026
654.441
649.821
645.164
640.471
635.741
630.973
626.169
621.327
616.447
611.529
606.572
601.576
596.542
591.468
586.355
581.201
576.008
570.773
565.498
560.182
554.824
549.424
543.982
538.498
532.971
527.401
521.787
516.13
510.428
504.682
498.891
493.056
487.174
481.247
475.274
469.255
463.189
457.076
450.916
444.708
438.452
432.149
425.797
419.397
412.947
406.448
399.898
393.295
386.636
379.917
373.128
366.264
359.304
959.146
959.138
959.104
959.06
959.02
958.965
958.907
958.943
959.075
959.299
959.619
960.018
960.457
960.91
961.328
961.683
961.946
962.097
962.123
962.018
961.781
961.412
960.916
960.299
959.567
958.729
957.79
956.757
955.637
954.436
953.159
951.809
950.393
948.913
947.373
945.775
944.123
942.42
940.666
938.865
937.017
935.125
933.19
931.214
929.197
927.141
925.046
922.914
920.746
918.542
916.303
914.03
911.723
909.384
907.011
904.607
902.171
899.704
897.206
894.677
892.119
889.53
886.912
884.265
881.589
878.883
876.149
873.386
870.595
867.776
864.928
862.052
859.148
856.216
853.256
850.268
847.252
844.208
841.137
838.037
834.91
831.755
828.571
825.36
822.121
818.853
815.557
812.233
808.881
805.5
802.09
798.652
795.185
791.689
788.164
784.61
781.027
777.414
773.771
770.099
766.397
762.665
758.902
755.109
751.286
747.432
743.547
739.631
735.683
731.704
727.693
723.65
719.575
715.468
711.328
707.156
702.95
698.711
694.439
690.133
685.792
681.418
677.009
672.566
668.088
663.574
659.025
654.44
649.82
645.163
640.469
635.739
630.972
626.168
621.325
616.445
611.527
606.57
601.575
596.54
591.467
586.353
581.2
576.006
570.772
565.496
560.18
554.822
549.423
543.981
538.496
532.969
527.399
521.785
516.128
510.426
504.68
498.889
493.053
487.172
481.244
475.271
469.251
463.184
457.07
450.909
444.7
438.442
432.136
425.781
419.377
412.922
406.416
399.857
393.243
386.57
379.835
373.027
366.141
359.159
958.214
958.176
958.045
957.865
957.649
957.447
957.305
957.159
957.222
957.475
957.965
958.639
959.415
960.255
961.046
961.752
962.316
962.714
962.934
962.973
962.837
962.534
962.075
961.474
960.741
959.888
958.926
957.863
956.709
955.47
954.154
952.765
951.308
949.788
948.209
946.573
944.884
943.144
941.356
939.521
937.641
935.718
933.753
931.748
929.704
927.621
925.502
923.346
921.155
918.929
916.67
914.377
912.051
909.694
907.304
904.884
902.432
899.951
897.439
894.897
892.326
889.726
887.096
884.438
881.752
879.037
876.293
873.522
870.722
867.895
865.04
862.157
859.247
856.308
853.343
850.349
847.328
844.279
841.203
838.099
834.968
831.809
828.622
825.407
822.164
818.893
815.595
812.268
808.913
805.53
802.118
798.678
795.209
791.711
788.184
784.628
781.044
777.429
773.786
770.112
766.409
762.676
758.912
755.118
751.294
747.439
743.553
739.636
735.688
731.708
727.697
723.654
719.578
715.471
711.33
707.157
702.951
698.712
694.44
690.133
685.793
681.418
677.01
672.566
668.087
663.574
659.025
654.44
649.819
645.162
640.468
635.738
630.971
626.166
621.324
616.444
611.526
606.569
601.574
596.539
591.465
586.352
581.198
576.004
570.77
565.495
560.179
554.821
549.421
543.979
538.495
532.967
527.397
521.783
516.126
510.424
504.678
498.887
493.051
487.169
481.241
475.267
469.247
463.179
457.065
450.902
444.691
438.432
432.124
425.765
419.357
412.897
406.384
399.817
393.193
386.508
379.757
372.932
366.027
359.025
956.096
955.966
955.647
955.151
954.55
953.868
953.223
952.698
952.714
953.092
954.012
955.305
956.803
958.434
959.939
961.273
962.348
963.145
963.657
963.902
963.903
963.686
963.276
962.693
961.959
961.09
960.102
959.007
957.816
956.538
955.18
953.75
952.252
950.692
949.072
947.397
945.67
943.894
942.07
940.201
938.288
936.333
934.338
932.303
930.231
928.122
925.977
923.796
921.582
919.334
917.053
914.74
912.395
910.018
907.611
905.174
902.707
900.21
897.683
895.128
892.544
889.931
887.29
884.621
881.923
879.198
876.445
873.665
870.857
868.022
865.159
862.269
859.351
856.406
853.434
850.435
847.409
844.355
841.274
838.165
835.029
831.866
828.675
825.457
822.211
818.937
815.635
812.305
808.948
805.562
802.148
798.705
795.234
791.734
788.206
784.648
781.062
777.446
773.801
770.126
766.422
762.687
758.923
755.128
751.303
747.447
743.561
739.643
735.694
731.714
727.702
723.658
719.582
715.474
711.333
707.16
702.953
698.714
694.441
690.134
685.794
681.419
677.01
672.566
668.087
663.574
659.024
654.439
649.818
645.161
640.468
635.737
630.97
626.165
621.323
616.443
611.524
606.568
601.572
596.538
591.464
586.35
581.197
576.003
570.768
565.493
560.177
554.819
549.42
543.978
538.493
532.966
527.395
521.782
516.124
510.422
504.676
498.885
493.048
487.166
481.238
475.264
469.243
463.175
457.059
450.895
444.683
438.422
432.111
425.75
419.337
412.872
406.353
399.778
393.144
386.448
379.683
372.843
365.921
358.902
952.602
952.37
951.52
950.179
948.478
946.655
944.923
943.849
943.278
943.86
945.755
948.392
951.418
954.574
957.405
959.853
961.809
963.26
964.227
964.772
964.962
964.855
964.502
963.941
963.206
962.32
961.305
960.176
958.947
957.628
956.229
954.757
953.218
951.616
949.957
948.243
946.478
944.664
942.804
940.9
938.954
936.967
934.941
932.877
930.776
928.639
926.468
924.263
922.024
919.753
917.45
915.116
912.751
910.356
907.931
905.476
902.992
900.48
897.938
895.369
892.771
890.146
887.492
884.811
882.103
879.368
876.605
873.815
870.998
868.154
865.283
862.386
859.461
856.509
853.531
850.526
847.493
844.434
841.348
838.235
835.094
831.927
828.732
825.509
822.26
818.982
815.677
812.345
808.984
805.596
802.179
798.734
795.261
791.759
788.229
784.67
781.081
777.464
773.818
770.142
766.436
762.7
758.935
755.139
751.313
747.456
743.569
739.65
735.7
731.719
727.707
723.662
719.586
715.477
711.336
707.162
702.956
698.716
694.443
690.136
685.795
681.42
677.01
672.566
668.088
663.574
659.024
654.439
649.818
645.161
640.467
635.737
630.969
626.164
621.322
616.442
611.523
606.567
601.571
596.536
591.463
586.349
581.195
576.001
570.767
565.492
560.176
554.818
549.418
543.976
538.492
532.964
527.394
521.78
516.122
510.42
504.674
498.883
493.046
487.164
481.235
475.261
469.239
463.17
457.054
450.889
444.675
438.412
432.099
425.734
419.318
412.848
406.323
399.741
393.098
386.391
379.614
372.76
365.823
358.789
948.084
947.165
945.079
941.674
936.783
931.155
926.308
923.344
922.579
924.053
928.045
933.565
939.875
946.184
951.848
956.567
960.218
962.788
964.494
965.489
965.935
965.968
965.686
965.157
964.427
963.531
962.493
961.336
960.073
958.718
957.281
955.77
954.192
952.551
950.853
949.101
947.298
945.448
943.553
941.615
939.635
937.616
935.559
933.465
931.335
929.171
926.973
924.743
922.48
920.185
917.86
915.505
913.12
910.705
908.261
905.789
903.288
900.759
898.203
895.619
893.007
890.368
887.702
885.01
882.29
879.544
876.771
873.971
871.145
868.292
865.413
862.508
859.576
856.617
853.632
850.62
847.582
844.517
841.426
838.307
835.162
831.99
828.791
825.565
822.311
819.03
815.722
812.386
809.023
805.632
802.212
798.765
795.29
791.786
788.253
784.692
781.102
777.483
773.835
770.158
766.451
762.714
758.947
755.15
751.323
747.465
743.577
739.658
735.707
731.726
727.712
723.667
719.59
715.481
711.34
707.165
702.958
698.718
694.444
690.137
685.796
681.421
677.011
672.567
668.088
663.574
659.024
654.439
649.818
645.16
640.466
635.736
630.968
626.163
621.321
616.441
611.522
606.565
601.57
596.535
591.461
586.348
581.194
576
570.766
565.491
560.174
554.816
549.417
543.975
538.49
532.963
527.392
521.778
516.121
510.419
504.672
498.881
493.044
487.161
481.233
475.257
469.235
463.166
457.048
450.882
444.667
438.403
432.087
425.72
419.3
412.826
406.295
399.706
393.055
386.338
379.55
372.684
365.733
358.686
943.143
941.395
936.973
929.208
917.931
904.976
894.336
887.045
884.285
885.943
892.763
904.014
917.333
930.471
941.9
950.883
957.317
961.6
964.31
965.892
966.665
966.873
966.687
966.213
965.515
964.632
963.594
962.425
961.144
959.764
958.299
956.757
955.146
953.472
951.74
949.954
948.117
946.233
944.304
942.333
940.322
938.271
936.184
934.061
931.903
929.711
927.487
925.231
922.944
920.626
918.279
915.902
913.496
911.062
908.6
906.109
903.592
901.047
898.474
895.875
893.25
890.598
887.919
885.214
882.483
879.725
876.942
874.132
871.297
868.435
865.548
862.634
859.694
856.728
853.736
850.718
847.674
844.603
841.506
838.383
835.233
832.056
828.852
825.622
822.365
819.08
815.769
812.43
809.063
805.669
802.247
798.797
795.319
791.813
788.279