/*--------------------------------*- C++ -*----------------------------------*\
| =========                 |                                                 |
| \\      /  F ield         | OpenFOAM: The Open Source CFD Toolbox           |
|  \\    /   O peration     | Version:  2.1.x                                 |
|   \\  /    A nd           | Web:      www.OpenFOAM.org                      |
|    \\/     M anipulation  |                                                 |
\*---------------------------------------------------------------------------*/
FoamFile
{
    version     2.0;
    format      ascii;
    class       surfaceScalarField;
    location    "0.002";
    object      phi;
}
// * * * * * * * * * * * * * * * * * * * * * * * * * * * * * * * * * * * * * //

dimensions      [0 3 -1 0 0 0 0];

internalField   nonuniform List<scalar> 
24170
(
1.89022e-06
1.20634e-06
1.15912e-06
7.31096e-07
8.54865e-07
3.04259e-07
7.45062e-07
1.09803e-07
6.84798e-07
6.02645e-08
6.80621e-07
4.17662e-09
7.02974e-07
-2.23533e-08
6.64717e-07
3.82569e-08
6.75297e-07
-1.05797e-08
8.04499e-07
-1.29202e-07
8.18851e-07
-1.43527e-08
7.56784e-07
6.20675e-08
8.4399e-07
-8.72063e-08
1.07446e-06
-2.30472e-07
1.09755e-06
-2.30853e-08
1.12482e-06
-2.7272e-08
1.25233e-06
-1.2751e-07
-4.70181e-07
1.72251e-06
3.39001e-06
1.31048e-06
2.90861e-06
1.21249e-06
2.54524e-06
6.67628e-07
2.29708e-06
3.57962e-07
2.14956e-06
2.07789e-07
2.10949e-06
4.4246e-08
2.04124e-06
4.58935e-08
1.96105e-06
1.18451e-07
2.04549e-06
-9.50196e-08
2.21676e-06
-3.00474e-07
2.15266e-06
4.97509e-08
2.15914e-06
5.55873e-08
2.37922e-06
-3.07293e-07
2.65242e-06
-5.0367e-07
2.71674e-06
-8.74055e-08
2.67833e-06
1.11441e-08
2.98494e-06
-4.34124e-07
-9.64246e-07
3.47901e-06
4.13539e-06
1.01103e-06
4.04616e-06
1.30172e-06
3.90185e-06
8.11947e-07
3.70487e-06
5.54934e-07
3.55091e-06
3.61748e-07
3.58109e-06
1.40738e-08
3.44946e-06
1.77519e-07
3.28817e-06
2.79743e-07
3.42752e-06
-2.34375e-07
3.59672e-06
-4.69666e-07
3.45345e-06
1.93021e-07
3.44155e-06
6.74823e-08
3.73993e-06
-6.05669e-07
3.98759e-06
-7.51336e-07
4.06016e-06
-1.59969e-07
4.05908e-06
1.22254e-08
4.33518e-06
-7.10226e-07
-1.17804e-06
4.54897e-06
4.4923e-06
8.14272e-07
4.56776e-06
1.22626e-06
4.6016e-06
7.78113e-07
4.5324e-06
6.24126e-07
4.55104e-06
3.43108e-07
4.69139e-06
-1.26268e-07
4.55098e-06
3.17923e-07
4.48051e-06
3.50214e-07
4.68457e-06
-4.38438e-07
4.64402e-06
-4.29113e-07
4.47148e-06
3.65559e-07
4.59865e-06
-5.96834e-08
4.87574e-06
-8.82762e-07
4.89887e-06
-7.74465e-07
4.80223e-06
-6.33307e-08
4.98861e-06
-1.74155e-07
5.17143e-06
-8.93045e-07
-1.06042e-06
5.05381e-06
4.79866e-06
6.24725e-07
5.04654e-06
9.78375e-07
5.08359e-06
7.41059e-07
5.18415e-06
5.23571e-07
5.22879e-06
2.98467e-07
5.17227e-06
-6.97513e-08
5.2383e-06
2.51894e-07
5.38737e-06
2.0114e-07
5.25413e-06
-3.05193e-07
5.10566e-06
-2.80646e-07
5.38118e-06
9.00372e-08
5.56911e-06
-2.47613e-07
5.34612e-06
-6.59767e-07
5.06386e-06
-4.9221e-07
5.29655e-06
-2.96021e-07
5.74372e-06
-6.21316e-07
5.7238e-06
-8.73127e-07
-8.7837e-07
5.54175e-06
5.25712e-06
4.26259e-07
5.39341e-06
8.42087e-07
5.48673e-06
6.47733e-07
5.65223e-06
3.58077e-07
5.69331e-06
2.57388e-07
5.69141e-06
-6.78521e-08
5.86791e-06
7.53899e-08
5.89617e-06
1.72884e-07
5.78009e-06
-1.89112e-07
5.84894e-06
-3.49502e-07
6.03045e-06
-9.147e-08
5.96655e-06
-1.83711e-07
5.83482e-06
-5.28034e-07
5.90148e-06
-5.58869e-07
6.0772e-06
-4.7175e-07
6.09862e-06
-6.42737e-07
6.04063e-06
-8.15131e-07
-1.05981e-06
6.22207e-06
5.60905e-06
4.39493e-07
5.84978e-06
6.01365e-07
5.95314e-06
5.44371e-07
6.01376e-06
2.97457e-07
6.09898e-06
1.72166e-07
6.1007e-06
-6.95679e-08
6.14998e-06
2.61027e-08
6.25721e-06
6.56562e-08
6.338e-06
-2.69896e-07
6.33077e-06
-3.42274e-07
6.36294e-06
-1.23647e-07
6.39192e-06
-2.12685e-07
6.43368e-06
-5.69793e-07
6.49094e-06
-6.16129e-07
6.48574e-06
-4.66551e-07
6.45276e-06
-6.09756e-07
6.57447e-06
-9.36847e-07
-1.10695e-06
6.62161e-06
4.57994e-06
3.17392e-07
4.59609e-06
5.85212e-07
4.61822e-06
5.22247e-07
4.65818e-06
2.57493e-07
4.6843e-06
1.46052e-07
4.68668e-06
-7.1957e-08
4.80792e-06
-9.5136e-08
4.90965e-06
-3.60669e-08
4.8591e-06
-2.1935e-07
4.87756e-06
-3.60729e-07
4.99388e-06
-2.39974e-07
5.01364e-06
-2.32447e-07
4.93631e-06
-4.92459e-07
4.91194e-06
-5.9176e-07
4.97766e-06
-5.32265e-07
5.0943e-06
-7.26399e-07
5.17489e-06
-1.01744e-06
-1.06838e-06
5.13633e-06
5.18668e-06
2.09017e-07
5.32706e-06
4.44829e-07
5.40832e-06
4.40987e-07
5.42262e-06
2.43196e-07
5.48093e-06
8.77418e-08
5.51434e-06
-1.05367e-07
5.55734e-06
-1.38136e-07
5.6225e-06
-1.01228e-07
5.67182e-06
-2.68671e-07
5.68226e-06
-3.71166e-07
5.68193e-06
-2.39644e-07
5.70857e-06
-2.59088e-07
5.75967e-06
-5.43562e-07
5.80029e-06
-6.32377e-07
5.82637e-06
-5.58345e-07
5.88065e-06
-7.80676e-07
5.91342e-06
-1.05022e-06
-9.44096e-07
5.78914e-06
6.05511e-06
2.23449e-07
6.1425e-06
3.5744e-07
6.26297e-06
3.20515e-07
6.37255e-06
1.33618e-07
6.43032e-06
2.99729e-08
6.43854e-06
-1.13594e-07
6.47562e-06
-1.75216e-07
6.54241e-06
-1.68014e-07
6.49338e-06
-2.19638e-07
6.45077e-06
-3.28557e-07
6.56967e-06
-3.58551e-07
6.6727e-06
-3.62117e-07
6.59919e-06
-4.70049e-07
6.55844e-06
-5.91623e-07
6.70214e-06
-7.02046e-07
6.76754e-06
-8.46078e-07
6.62116e-06
-9.03838e-07
-1.00617e-06
6.68323e-06
6.9474e-06
1.89737e-07
7.13582e-06
1.69019e-07
7.28241e-06
1.73925e-07
7.32044e-06
9.5593e-08
7.37139e-06
-2.09739e-08
7.39905e-06
-1.4126e-07
7.41806e-06
-1.94227e-07
7.46642e-06
-2.16371e-07
7.53371e-06
-2.86928e-07
7.58645e-06
-3.813e-07
7.59854e-06
-3.70643e-07
7.59521e-06
-3.58788e-07
7.65411e-06
-5.28948e-07
7.76502e-06
-7.02525e-07
7.7615e-06
-6.9853e-07
7.61779e-06
-7.02365e-07
7.60974e-06
-8.95791e-07
-1.32747e-06
7.93103e-06
8.27241e-06
4.45639e-08
8.35927e-06
8.21514e-08
8.37067e-06
1.62524e-07
8.39092e-06
7.53423e-08
8.42796e-06
-5.80073e-08
8.48795e-06
-2.01247e-07
8.57614e-06
-2.82421e-07
8.67758e-06
-3.17816e-07
8.6981e-06
-3.0744e-07
8.65809e-06
-3.41295e-07
8.6853e-06
-3.9785e-07
8.76523e-06
-4.38717e-07
8.73619e-06
-4.99908e-07
8.64359e-06
-6.09923e-07
8.67874e-06
-7.33687e-07
8.86092e-06
-8.84544e-07
8.99011e-06
-1.02498e-06
-1.00574e-06
8.66838e-06
9.69714e-06
-3.77381e-09
9.67672e-06
1.02573e-07
9.70889e-06
1.30358e-07
9.77281e-06
1.14232e-08
9.84493e-06
-1.30135e-07
9.91619e-06
-2.72504e-07
9.96265e-06
-3.28882e-07
9.98614e-06
-3.41301e-07
1.00235e-05
-3.44781e-07
1.00609e-05
-3.78698e-07
1.0061e-05
-3.98014e-07
1.00575e-05
-4.35222e-07
1.01046e-05
-5.46939e-07
1.01812e-05
-6.86504e-07
1.0214e-05
-7.66528e-07
1.01997e-05
-8.70265e-07
1.01605e-05
-9.85714e-07
-9.32239e-07
1.0087e-05
1.13891e-05
-7.96317e-08
1.14931e-05
-1.46197e-09
1.15577e-05
6.57726e-08
1.15568e-05
1.23064e-08
1.15312e-05
-1.04512e-07
1.1494e-05
-2.35273e-07
1.14738e-05
-3.08722e-07
1.14918e-05
-3.59301e-07
1.15138e-05
-3.6681e-07
1.15099e-05
-3.74745e-07
1.15332e-05
-4.21348e-07
1.16013e-05
-5.03313e-07
1.16279e-05
-5.73494e-07
1.16145e-05
-6.73141e-07
1.16451e-05
-7.97109e-07
1.16551e-05
-8.80308e-07
1.1632e-05
-9.62613e-07
-1.21779e-06
1.19176e-05
1.2931e-05
-5.21034e-08
1.31611e-05
-2.31632e-07
1.33549e-05
-1.27938e-07
1.3428e-05
-6.08625e-08
1.34031e-05
-7.95623e-08
1.33477e-05
-1.79907e-07
1.33158e-05
-2.76763e-07
1.33219e-05
-3.65477e-07
1.3373e-05
-4.17894e-07
1.3464e-05
-4.65709e-07
1.35541e-05
-5.11491e-07
1.3618e-05
-5.67203e-07
1.36793e-05
-6.34831e-07
1.37295e-05
-7.23253e-07
1.37275e-05
-7.95123e-07
1.37179e-05
-8.70772e-07
1.36976e-05
-9.42309e-07
-9.32487e-07
1.34123e-05
1.49309e-05
-1.33905e-07
1.5014e-05
-3.14681e-07
1.51336e-05
-2.47573e-07
1.52588e-05
-1.8602e-07
1.53508e-05
-1.71555e-07
1.53998e-05
-2.28914e-07
1.54429e-05
-3.19926e-07
1.55033e-05
-4.25852e-07
1.55781e-05
-4.92714e-07
1.56432e-05
-5.30803e-07
1.56893e-05
-5.57528e-07
1.57195e-05
-5.97434e-07
1.57214e-05
-6.36691e-07
1.56842e-05
-6.86069e-07
1.56351e-05
-7.46054e-07
1.55749e-05
-8.10573e-07
1.55005e-05
-8.67863e-07
-9.27771e-07
1.54957e-05
1.7517e-05
2.5886e-08
1.73566e-05
-1.54249e-07
1.73492e-05
-2.40216e-07
1.74399e-05
-2.76704e-07
1.75931e-05
-3.2472e-07
1.77702e-05
-4.06047e-07
1.79102e-05
-4.5986e-07
1.79747e-05
-4.90426e-07
1.79708e-05
-4.88757e-07
1.79256e-05
-4.85637e-07
1.78635e-05
-4.95403e-07
1.77962e-05
-5.30164e-07
1.77408e-05
-5.8129e-07
1.77037e-05
-6.48951e-07
1.76729e-05
-7.15215e-07
1.76383e-05
-7.75966e-07
1.7596e-05
-8.25655e-07
-8.60767e-07
1.7529e-05
1.82154e-05
1.56349e-07
1.81312e-05
-7.0097e-08
1.81175e-05
-2.26475e-07
1.82008e-05
-3.60017e-07
1.83162e-05
-4.40173e-07
1.83744e-05
-4.6421e-07
1.83501e-05
-4.35526e-07
1.82618e-05
-4.02144e-07
1.81514e-05
-3.78374e-07
1.80512e-05
-3.85442e-07
1.79764e-05
-4.20537e-07
1.79291e-05
-4.8287e-07
1.79006e-05
-5.52815e-07
1.78768e-05
-6.25155e-07
1.78474e-05
-6.85848e-07
1.78069e-05
-7.35404e-07
1.77503e-05
-7.69119e-07
-7.87001e-07
1.76766e-05
1.65732e-05
1.42106e-07
1.65416e-05
-3.8552e-08
1.64787e-05
-1.63559e-07
1.64551e-05
-3.36389e-07
1.6455e-05
-4.40041e-07
1.6447e-05
-4.5622e-07
1.64099e-05
-3.98436e-07
1.63386e-05
-3.30806e-07
1.62467e-05
-2.86565e-07
1.61514e-05
-2.9012e-07
1.6063e-05
-3.32149e-07
1.59854e-05
-4.05237e-07
1.59191e-05
-4.8654e-07
1.58599e-05
-5.65967e-07
1.5802e-05
-6.2786e-07
1.57398e-05
-6.73224e-07
1.56708e-05
-7.0017e-07
-7.11423e-07
1.55952e-05
1.42109e-05
1.23306e-07
1.42426e-05
-7.02735e-08
1.42857e-05
-2.06658e-07
1.4289e-05
-3.39678e-07
1.42582e-05
-4.09179e-07
1.42361e-05
-4.34192e-07
1.42556e-05
-4.17902e-07
1.43149e-05
-3.90099e-07
1.43921e-05
-3.63818e-07
1.4461e-05
-3.59027e-07
1.45049e-05
-3.75983e-07
1.45146e-05
-4.14928e-07
1.44886e-05
-4.60542e-07
1.44303e-05
-5.0771e-07
1.43475e-05
-5.45053e-07
1.42481e-05
-5.7379e-07
1.41385e-05
-5.90608e-07
-5.96584e-07
1.40237e-05
1.27455e-05
1.88256e-08
1.28223e-05
-1.47001e-07
1.29101e-05
-2.94511e-07
1.29332e-05
-3.62722e-07
1.29012e-05
-3.7726e-07
1.28576e-05
-3.90592e-07
1.28413e-05
-4.01578e-07
1.28615e-05
-4.10242e-07
1.29043e-05
-4.06615e-07
1.29485e-05
-4.0331e-07
1.29789e-05
-4.06328e-07
1.29835e-05
-4.19557e-07
1.29569e-05
-4.33972e-07
1.29e-05
-4.50762e-07
1.28196e-05
-4.64698e-07
1.27235e-05
-4.77607e-07
1.2618e-05
-4.85121e-07
-4.85327e-07
1.25067e-05
1.13138e-05
-2.19584e-07
1.14517e-05
-2.84921e-07
1.15434e-05
-3.86147e-07
1.15831e-05
-4.02441e-07
1.1596e-05
-3.90131e-07
1.1612e-05
-4.06663e-07
1.16367e-05
-4.26226e-07
1.16449e-05
-4.1851e-07
1.16194e-05
-3.81108e-07
1.15637e-05
-3.47621e-07
1.14914e-05
-3.34014e-07
1.14139e-05
-3.42053e-07
1.13384e-05
-3.5847e-07
1.12669e-05
-3.79259e-07
1.11989e-05
-3.96677e-07
1.11325e-05
-4.11221e-07
1.1066e-05
-4.18597e-07
-4.18306e-07
1.0999e-05
1.03085e-05
-1.1601e-07
1.03961e-05
-3.72462e-07
1.05205e-05
-5.10585e-07
1.0654e-05
-5.35938e-07
1.07367e-05
-4.72852e-07
1.07679e-05
-4.37858e-07
1.07596e-05
-4.17903e-07
1.0707e-05
-3.6587e-07
1.06144e-05
-2.88542e-07
1.05055e-05
-2.38709e-07
1.04022e-05
-2.30688e-07
1.03113e-05
-2.51239e-07
1.02309e-05
-2.78023e-07
1.0156e-05
-3.04321e-07
1.00837e-05
-3.24368e-07
1.0012e-05
-3.39569e-07
9.93862e-06
-3.45219e-07
-3.42889e-07
9.8632e-06
9.1079e-06
-1.87822e-07
9.18678e-06
-4.51349e-07
9.34299e-06
-6.66793e-07
9.46889e-06
-6.61841e-07
9.50539e-06
-5.0935e-07
9.48708e-06
-4.19546e-07
9.45614e-06
-3.86965e-07
9.41868e-06
-3.28409e-07
9.3722e-06
-2.42063e-07
9.3231e-06
-1.89605e-07
9.27764e-06
-1.85235e-07
9.23197e-06
-2.05562e-07
9.18008e-06
-2.26134e-07
9.11888e-06
-2.43122e-07
9.05084e-06
-2.56331e-07
8.97828e-06
-2.67009e-07
8.90198e-06
-2.68915e-07
-2.64582e-07
8.82367e-06
8.26704e-06
-2.21298e-07
8.38398e-06
-5.68287e-07
8.48441e-06
-7.67226e-07
8.51515e-06
-6.92582e-07
8.50505e-06
-4.99253e-07
8.50909e-06
-4.23587e-07
8.5389e-06
-4.16769e-07
8.55512e-06
-3.44626e-07
8.53521e-06
-2.22153e-07
8.493e-06
-1.47398e-07
8.44274e-06
-1.34974e-07
8.38506e-06
-1.47889e-07
8.31684e-06
-1.57907e-07
8.23855e-06
-1.64837e-07
8.15611e-06
-1.73885e-07
8.07196e-06
-1.82866e-07
7.98716e-06
-1.84115e-07
-1.79876e-07
7.90246e-06
7.05969e-06
-3.82815e-07
7.32585e-06
-8.34443e-07
7.55256e-06
-9.9394e-07
7.65965e-06
-7.99674e-07
7.68782e-06
-5.27421e-07
7.69248e-06
-4.28245e-07
7.70634e-06
-4.30634e-07
7.71007e-06
-3.48351e-07
7.69146e-06
-2.03549e-07
7.65833e-06
-1.14262e-07
7.62084e-06
-9.74893e-08
7.57514e-06
-1.02186e-07
7.51525e-06
-9.80127e-08
7.44103e-06
-9.062e-08
7.35871e-06
-9.15654e-08
7.27103e-06
-9.51925e-08
7.18222e-06
-9.53046e-08
-9.01878e-08
7.09254e-06
6.48429e-06
-5.70152e-07
6.78034e-06
-1.13049e-06
6.91947e-06
-1.13308e-06
6.93991e-06
-8.20115e-07
6.94463e-06
-5.32133e-07
6.94843e-06
-4.32053e-07
6.94091e-06
-4.23114e-07
6.91194e-06
-3.19382e-07
6.86628e-06
-1.57884e-07
6.80942e-06
-5.74054e-08
6.74817e-06
-3.6241e-08
6.68181e-06
-3.58255e-08
6.60982e-06
-2.60227e-08
6.53453e-06
-1.53227e-08
6.45921e-06
-1.62497e-08
6.38503e-06
-2.10083e-08
6.31417e-06
-2.44445e-08
-2.02454e-08
6.24422e-06
5.96306e-06
-8.54592e-07
6.11471e-06
-1.28214e-06
6.03848e-06
-1.05684e-06
5.92378e-06
-7.05416e-07
5.83681e-06
-4.45162e-07
5.74359e-06
-3.38839e-07
5.61559e-06
-2.95114e-07
5.49252e-06
-1.96304e-07
5.40383e-06
-6.92003e-08
5.34309e-06
3.33848e-09
5.29863e-06
8.21612e-09
5.26256e-06
2.43793e-10
5.23502e-06
1.52449e-09
5.21153e-06
8.16745e-09
5.18781e-06
7.46109e-09
5.16233e-06
4.47401e-09
5.1366e-06
1.29197e-09
6.71643e-09
5.10963e-06
5.13468e-06
-1.01298e-06
4.8811e-06
-1.02855e-06
4.4671e-06
-6.4285e-07
4.11723e-06
-3.55543e-07
3.85323e-06
-1.81163e-07
3.61997e-06
-1.05578e-07
3.40032e-06
-7.54673e-08
3.24647e-06
-4.24537e-08
3.17821e-06
-9.38868e-10
3.16554e-06
1.60081e-08
3.16551e-06
8.24537e-09
3.16615e-06
-3.97267e-10
3.1687e-06
-1.02119e-09
3.17369e-06
3.17669e-09
3.17871e-06
2.44026e-09
3.18167e-06
1.52026e-09
3.18915e-06
-6.19699e-09
2.53165e-09
3.19334e-06
3.38651e-06
2.35796e-06
1.71511e-06
1.35957e-06
1.1784e-06
1.07282e-06
9.97357e-07
9.54904e-07
9.53965e-07
9.69973e-07
9.78218e-07
9.77821e-07
9.768e-07
9.79976e-07
9.82417e-07
9.83937e-07
9.7774e-07
9.80272e-07
2.81105e-08
-2.81105e-08
7.2323e-08
-4.42125e-08
1.19813e-07
-4.74897e-08
1.69208e-07
-4.93951e-08
2.20557e-07
-5.1349e-08
2.74075e-07
-5.35179e-08
3.29989e-07
-5.59145e-08
3.88515e-07
-5.85255e-08
4.49842e-07
-6.13274e-08
5.14131e-07
-6.42894e-08
5.81506e-07
-6.73746e-08
6.52047e-07
-7.05414e-08
7.25792e-07
-7.37446e-08
8.02729e-07
-7.69369e-08
8.828e-07
-8.00707e-08
9.65899e-07
-8.30992e-08
1.05188e-06
-8.59768e-08
1.14054e-06
-8.86608e-08
1.23165e-06
-9.11141e-08
1.32495e-06
-9.3303e-08
1.42015e-06
-9.51969e-08
1.51692e-06
-9.67726e-08
1.61494e-06
-9.80166e-08
1.71386e-06
-9.89192e-08
1.81333e-06
-9.94697e-08
1.91299e-06
-9.96661e-08
2.01252e-06
-9.95217e-08
2.11156e-06
-9.90473e-08
2.20981e-06
-9.82466e-08
2.30695e-06
-9.71357e-08
2.40269e-06
-9.57417e-08
2.49678e-06
-9.40879e-08
2.58897e-06
-9.21954e-08
2.67906e-06
-9.00861e-08
2.76684e-06
-8.77806e-08
2.85214e-06
-8.53052e-08
2.93484e-06
-8.26938e-08
3.01481e-06
-7.99711e-08
3.09195e-06
-7.71474e-08
3.1662e-06
-7.42411e-08
3.23748e-06
-7.12861e-08
3.30579e-06
-6.83079e-08
3.3711e-06
-6.53105e-08
3.4334e-06
-6.23017e-08
3.49271e-06
-5.93077e-08
3.54906e-06
-5.63512e-08
3.60249e-06
-5.3434e-08
3.65305e-06
-5.05547e-08
3.70078e-06
-4.77292e-08
3.74576e-06
-4.49762e-08
3.78805e-06
-4.22972e-08
3.82774e-06
-3.96858e-08
3.86489e-06
-3.71477e-08
3.89958e-06
-3.4696e-08
3.93192e-06
-3.23334e-08
3.96197e-06
-3.00524e-08
3.98982e-06
-2.78511e-08
4.01556e-06
-2.57366e-08
4.03927e-06
-2.37122e-08
4.06104e-06
-2.17714e-08
4.08095e-06
-1.99089e-08
4.09907e-06
-1.81273e-08
4.1155e-06
-1.6429e-08
4.13031e-06
-1.48087e-08
4.14357e-06
-1.32596e-08
4.15535e-06
-1.17813e-08
4.16573e-06
-1.03765e-08
4.17477e-06
-9.04234e-09
4.18254e-06
-7.7709e-09
4.1891e-06
-6.55761e-09
4.19451e-06
-5.40474e-09
4.19882e-06
-4.31382e-09
4.2021e-06
-3.27988e-09
4.2044e-06
-2.29683e-09
4.20576e-06
-1.36774e-09
4.20628e-06
-5.12297e-10
4.20597e-06
3.02719e-10
4.20482e-06
1.15317e-09
4.2029e-06
1.92515e-09
4.20025e-06
2.64894e-09
4.19692e-06
3.32849e-09
4.19295e-06
3.96645e-09
4.18838e-06
4.56982e-09
4.18324e-06
5.14447e-09
4.17755e-06
5.69193e-09
4.17133e-06
6.21652e-09
4.16462e-06
6.71239e-09
4.15744e-06
7.18018e-09
4.14981e-06
7.62728e-09
4.14175e-06
8.054e-09
4.1333e-06
8.45847e-09
4.12446e-06
8.84009e-09
4.11526e-06
9.201e-09
4.10571e-06
9.54789e-09
4.09583e-06
9.88236e-09
4.08563e-06
1.0199e-08
4.07513e-06
1.04969e-08
4.06435e-06
1.078e-08
4.0533e-06
1.10529e-08
4.04198e-06
1.13178e-08
4.03041e-06
1.15733e-08
4.01859e-06
1.18165e-08
4.00654e-06
1.20461e-08
3.99428e-06
1.22646e-08
3.9818e-06
1.2476e-08
3.96912e-06
1.26822e-08
3.95624e-06
1.28818e-08
3.94317e-06
1.30722e-08
3.92991e-06
1.32525e-08
3.91649e-06
1.34247e-08
3.9029e-06
1.35917e-08
3.88914e-06
1.37554e-08
3.87523e-06
1.39149e-08
3.86116e-06
1.40689e-08
3.84694e-06
1.42165e-08
3.83258e-06
1.43584e-08
3.81809e-06
1.4496e-08
3.80346e-06
1.46307e-08
3.78869e-06
1.47627e-08
3.7738e-06
1.48919e-08
3.75878e-06
1.50179e-08
3.74364e-06
1.51402e-08
3.72838e-06
1.52585e-08
3.71301e-06
1.5373e-08
3.69753e-06
1.54843e-08
3.68193e-06
1.55941e-08
3.66623e-06
1.57037e-08
3.65042e-06
1.58129e-08
3.6345e-06
1.59205e-08
3.61847e-06
1.60249e-08
3.60235e-06
1.61254e-08
3.58612e-06
1.62231e-08
3.5698e-06
1.63199e-08
3.55338e-06
1.64177e-08
3.53687e-06
1.65165e-08
3.52025e-06
1.66146e-08
3.50354e-06
1.67099e-08
3.48674e-06
1.68018e-08
3.46985e-06
1.68912e-08
3.45287e-06
1.69803e-08
3.4358e-06
1.70703e-08
3.41864e-06
1.71608e-08
3.40139e-06
1.72508e-08
3.38405e-06
1.73391e-08
3.36662e-06
1.74251e-08
3.34912e-06
1.75093e-08
3.33152e-06
1.75931e-08
3.31384e-06
1.76781e-08
3.29608e-06
1.77643e-08
3.27823e-06
1.78507e-08
3.26029e-06
1.79367e-08
3.24227e-06
1.80223e-08
3.22416e-06
1.81075e-08
3.20597e-06
1.81926e-08
3.18769e-06
1.8279e-08
3.16932e-06
1.83683e-08
3.15086e-06
1.84618e-08
3.1323e-06
1.85604e-08
3.11364e-06
1.86651e-08
3.09486e-06
1.87762e-08
3.07596e-06
1.8896e-08
3.05694e-06
1.90274e-08
3.03776e-06
1.91741e-08
3.01842e-06
1.93428e-08
2.99888e-06
1.95399e-08
2.9791e-06
1.97757e-08
2.95904e-06
2.00592e-08
2.93863e-06
2.04097e-08
2.91779e-06
2.08487e-08
2.89638e-06
2.141e-08
2.8742e-06
2.21788e-08
2.85114e-06
2.30564e-08
2.82629e-06
2.48512e-08
2.80084e-06
2.54539e-08
2.76872e-06
3.21138e-08
2.74182e-06
2.68976e-08
2.68512e-06
5.67076e-08
2.66031e-06
2.48021e-08
2.51272e-06
1.47592e-07
7.84835e-08
2.43424e-06
2.54e-08
-5.35104e-08
7.07804e-08
-8.95929e-08
1.1967e-07
-9.63795e-08
1.7045e-07
-1.00175e-07
2.23255e-07
-1.04154e-07
2.78377e-07
-1.0864e-07
3.36105e-07
-1.13642e-07
3.96704e-07
-1.19125e-07
4.60409e-07
-1.25032e-07
5.27412e-07
-1.31293e-07
5.97873e-07
-1.37835e-07
6.71901e-07
-1.4457e-07
7.49559e-07
-1.51403e-07
8.30855e-07
-1.58232e-07
9.15744e-07
-1.6496e-07
1.00414e-06
-1.7149e-07
1.09589e-06
-1.77728e-07
1.19081e-06
-1.83586e-07
1.28868e-06
-1.88985e-07
1.38924e-06
-1.93863e-07
1.4922e-06
-1.98157e-07
1.59725e-06
-2.01816e-07
1.70404e-06
-2.04808e-07
1.81224e-06
-2.07118e-07
1.9215e-06
-2.08731e-07
2.03148e-06
-2.09645e-07
2.14183e-06
-2.09872e-07
2.2522e-06
-2.09423e-07
2.36228e-06
-2.08325e-07
2.47177e-06
-2.06628e-07
2.5804e-06
-2.04366e-07
2.68787e-06
-2.01557e-07
2.79392e-06
-1.98246e-07
2.89834e-06
-1.9451e-07
3.00095e-06
-1.90393e-07
3.10156e-06
-1.85917e-07
3.2e-06
-1.81125e-07
3.29611e-06
-1.76088e-07
3.38982e-06
-1.70853e-07
3.48102e-06
-1.65442e-07
3.56962e-06
-1.59886e-07
3.65555e-06
-1.54237e-07
3.73877e-06
-1.48537e-07
3.81928e-06
-1.42808e-07
3.89704e-06
-1.37069e-07
3.97204e-06
-1.31346e-07
4.04427e-06
-1.2567e-07
4.11378e-06
-1.20063e-07
4.18059e-06
-1.14538e-07
4.24472e-06
-1.09105e-07
4.3062e-06
-1.03777e-07
4.36508e-06
-9.85691e-08
4.42143e-06
-9.34951e-08
4.47529e-06
-8.85568e-08
4.52671e-06
-8.37533e-08
4.57575e-06
-7.90906e-08
4.62248e-06
-7.45801e-08
4.66696e-06
-7.02248e-08
4.70927e-06
-6.60171e-08
4.74945e-06
-6.19524e-08
4.78758e-06
-5.80358e-08
4.82372e-06
-5.42735e-08
4.85795e-06
-5.06599e-08
4.89033e-06
-4.71847e-08
4.92092e-06
-4.38447e-08
4.94978e-06
-4.06446e-08
4.97699e-06
-3.75836e-08
5.0026e-06
-3.46521e-08
5.02667e-06
-3.18411e-08
5.04926e-06
-2.91503e-08
5.07044e-06
-2.65825e-08
5.09026e-06
-2.41334e-08
5.10877e-06
-2.17927e-08
5.12603e-06
-1.9555e-08
5.14208e-06
-1.74228e-08
5.15697e-06
-1.53965e-08
5.17072e-06
-1.34549e-08
5.18346e-06
-1.15837e-08
5.19519e-06
-9.80361e-09
5.20595e-06
-8.11349e-09
5.21579e-06
-6.50957e-09
5.22474e-06
-4.98541e-09
5.23285e-06
-3.53338e-09
5.24014e-06
-2.15126e-09
5.24668e-06
-8.50204e-10
5.25252e-06
3.79559e-10
5.25762e-06
1.60886e-09
5.26205e-06
2.75754e-09
5.26582e-06
3.84939e-09
5.26899e-06
4.8865e-09
5.27158e-06
5.87062e-09
5.27361e-06
6.80528e-09
5.27512e-06
7.69711e-09
5.27612e-06
8.55034e-09
5.27663e-06
9.36464e-09
5.2767e-06
1.01368e-08
5.27632e-06
1.08698e-08
5.27553e-06
1.15701e-08
5.27434e-06
1.22417e-08
5.27278e-06
1.28848e-08
5.27085e-06
1.34983e-08
5.26859e-06
1.40822e-08
5.26599e-06
1.4639e-08
5.26309e-06
1.51728e-08
5.25988e-06
1.56861e-08
5.25638e-06
1.61789e-08
5.25261e-06
1.66499e-08
5.24858e-06
1.70986e-08
5.24431e-06
1.75274e-08
5.23979e-06
1.79397e-08
5.23505e-06
1.83382e-08
5.23008e-06
1.8723e-08
5.2249e-06
1.90933e-08
5.21952e-06
1.94484e-08
5.21395e-06
1.9789e-08
5.20819e-06
2.01171e-08
5.20225e-06
2.04354e-08
5.19614e-06
2.07455e-08
5.18985e-06
2.10473e-08
5.1834e-06
2.134e-08
5.1768e-06
2.1623e-08
5.17004e-06
2.18959e-08
5.16314e-06
2.216e-08
5.1561e-06
2.24168e-08
5.14891e-06
2.26682e-08
5.14159e-06
2.29157e-08
5.13414e-06
2.31593e-08
5.12655e-06
2.33984e-08
5.11884e-06
2.36319e-08
5.11101e-06
2.38593e-08
5.10305e-06
2.40812e-08
5.09497e-06
2.42993e-08
5.08678e-06
2.45154e-08
5.07846e-06
2.47309e-08
5.07004e-06
2.49456e-08
5.06149e-06
2.51579e-08
5.05284e-06
2.53662e-08
5.04407e-06
2.55703e-08
5.03519e-06
2.57719e-08
5.02619e-06
2.59732e-08
5.01709e-06
2.61753e-08
5.00787e-06
2.63774e-08
4.99854e-06
2.65785e-08
4.98911e-06
2.67775e-08
4.97956e-06
2.69739e-08
4.9699e-06
2.71692e-08
4.96013e-06
2.73657e-08
4.95024e-06
2.75651e-08
4.94024e-06
2.7767e-08
4.93012e-06
2.79703e-08
4.91988e-06
2.81745e-08
4.90952e-06
2.838e-08
4.89904e-06
2.85873e-08
4.88843e-06
2.87985e-08
4.8777e-06
2.90157e-08
4.86683e-06
2.9241e-08
4.85581e-06
2.94773e-08
4.84464e-06
2.97269e-08
4.83332e-06
2.9993e-08
4.82181e-06
3.02788e-08
4.81012e-06
3.05892e-08
4.79821e-06
3.09329e-08
4.78607e-06
3.13186e-08
4.77365e-06
3.17597e-08
4.76092e-06
3.22741e-08
4.74781e-06
3.28849e-08
4.73425e-06
3.36172e-08
4.72015e-06
3.4515e-08
4.70536e-06
3.56375e-08
4.68972e-06
3.70469e-08
4.67296e-06
3.89371e-08
4.6548e-06
4.12157e-08
4.63461e-06
4.50453e-08
4.6121e-06
4.7961e-08
4.58466e-06
5.95599e-08
4.55496e-06
5.65926e-08
4.50538e-06
1.06287e-07
4.46086e-06
6.93268e-08
4.35243e-06
2.56017e-07
1.8703e-07
4.24388e-06
1.8566e-08
-7.20764e-08
6.08655e-08
-1.31892e-07
1.07364e-07
-1.42878e-07
1.55881e-07
-1.48692e-07
2.06542e-07
-1.54814e-07
2.59695e-07
-1.61793e-07
3.15687e-07
-1.69635e-07
3.74835e-07
-1.78273e-07
4.37414e-07
-1.8761e-07
5.0365e-07
-1.9753e-07
5.73714e-07
-2.07899e-07
6.47714e-07
-2.18569e-07
7.25697e-07
-2.29386e-07
8.07653e-07
-2.40188e-07
8.93512e-07
-2.50819e-07
9.8315e-07
-2.61128e-07
1.07639e-06
-2.70969e-07
1.17301e-06
-2.80203e-07
1.27273e-06
-2.88711e-07
1.37526e-06
-2.96386e-07
1.48024e-06
-3.03136e-07
1.58732e-06
-3.08897e-07
1.69614e-06
-3.13633e-07
1.80634e-06
-3.17316e-07
1.91752e-06
-3.19907e-07
2.02929e-06
-3.21418e-07
2.14132e-06
-3.21902e-07
2.25327e-06
-3.21375e-07
2.3648e-06
-3.19849e-07
2.47556e-06
-3.17392e-07
2.58528e-06
-3.1409e-07
2.69373e-06
-3.10002e-07
2.80066e-06
-3.05181e-07
2.90585e-06
-2.99694e-07
3.00907e-06
-2.93612e-07
3.11017e-06
-2.87019e-07
3.20904e-06
-2.79996e-07
3.30555e-06
-2.72597e-07
3.39956e-06
-2.64862e-07
3.49098e-06
-2.56866e-07
3.57979e-06
-2.48694e-07
3.66594e-06
-2.40391e-07
3.74938e-06
-2.31973e-07
3.83005e-06
-2.23486e-07
3.90799e-06
-2.15002e-07
3.98321e-06
-2.06564e-07
4.05571e-06
-1.98174e-07
4.1255e-06
-1.89848e-07
4.19259e-06
-1.81635e-07
4.25706e-06
-1.73572e-07
4.31895e-06
-1.65663e-07
4.37828e-06
-1.57905e-07
4.43511e-06
-1.50319e-07
4.48948e-06
-1.42932e-07
4.54148e-06
-1.35751e-07
4.59116e-06
-1.28768e-07
4.63856e-06
-1.21986e-07
4.68376e-06
-1.15417e-07
4.72681e-06
-1.09069e-07
4.76779e-06
-1.02935e-07
4.80676e-06
-9.70096e-08
4.84378e-06
-9.12943e-08
4.87891e-06
-8.57908e-08
4.91223e-06
-8.04956e-08
4.94378e-06
-7.54029e-08
4.97365e-06
-7.05087e-08
5.00187e-06
-6.58094e-08
5.02852e-06
-6.12996e-08
5.05365e-06
-5.69741e-08
5.07733e-06
-5.28287e-08
5.09961e-06
-4.88601e-08
5.12054e-06
-4.50616e-08
5.14017e-06
-4.14249e-08
5.15856e-06
-3.7945e-08
5.17576e-06
-3.46191e-08
5.1918e-06
-3.14422e-08
5.20675e-06
-2.8405e-08
5.22067e-06
-2.54981e-08
5.23358e-06
-2.272e-08
5.24554e-06
-2.007e-08
5.25658e-06
-1.75447e-08
5.26673e-06
-1.51385e-08
5.27604e-06
-1.28455e-08
5.28455e-06
-1.06627e-08
5.29229e-06
-8.58703e-09
5.29927e-06
-6.60466e-09
5.30558e-06
-4.69565e-09
5.31121e-06
-2.87692e-09
5.31621e-06
-1.14764e-09
5.32061e-06
4.87892e-10
5.32442e-06
2.05395e-09
5.32769e-06
3.54118e-09
5.33042e-06
4.96416e-09
5.33265e-06
6.31861e-09
5.33441e-06
7.60608e-09
5.33572e-06
8.83094e-09
5.33659e-06
9.9976e-09
5.33705e-06
1.11114e-08
5.33712e-06
1.21744e-08
5.33681e-06
1.31871e-08
5.33616e-06
1.41518e-08
5.33517e-06
1.50722e-08
5.33386e-06
1.59525e-08
5.33223e-06
1.67953e-08
5.33032e-06
1.76011e-08
5.32813e-06
1.83695e-08
5.32568e-06
1.91013e-08
5.32298e-06
1.97994e-08
5.32004e-06
2.04679e-08
5.31686e-06
2.11106e-08
5.31347e-06
2.17287e-08
5.30988e-06
2.23217e-08
5.30608e-06
2.28887e-08
5.3021e-06
2.34305e-08
5.29794e-06
2.39495e-08
5.29361e-06
2.44494e-08
5.28911e-06
2.49337e-08
5.28445e-06
2.54034e-08
5.27964e-06
2.58579e-08
5.27468e-06
2.62954e-08
5.26959e-06
2.67151e-08
5.26437e-06
2.71184e-08
5.25902e-06
2.7509e-08
5.25355e-06
2.78902e-08
5.24795e-06
2.82633e-08
5.24224e-06
2.8628e-08
5.23641e-06
2.89831e-08
5.23049e-06
2.93276e-08
5.22445e-06
2.96625e-08
5.21833e-06
2.99888e-08
5.2121e-06
3.03086e-08
5.20577e-06
3.06233e-08
5.19936e-06
3.09337e-08
5.19285e-06
3.124e-08
5.18625e-06
3.15426e-08
5.17957e-06
3.18403e-08
5.1728e-06
3.21327e-08
5.16595e-06
3.24205e-08
5.15902e-06
3.2706e-08
5.152e-06
3.29903e-08
5.1449e-06
3.32738e-08
5.13772e-06
3.35559e-08
5.13047e-06
3.38356e-08
5.12313e-06
3.41121e-08
5.11572e-06
3.43859e-08
5.10823e-06
3.46592e-08
5.10066e-06
3.49349e-08
5.09301e-06
3.52143e-08
5.08528e-06
3.5496e-08
5.07747e-06
3.57789e-08
5.06958e-06
3.60636e-08
5.06161e-06
3.63509e-08
5.05356e-06
3.66424e-08
5.04541e-06
3.69411e-08
5.03718e-06
3.72503e-08
5.02885e-06
3.75716e-08
5.02042e-06
3.79093e-08
5.01188e-06
3.82672e-08
5.00322e-06
3.86503e-08
4.99443e-06
3.90661e-08
4.9855e-06
3.95221e-08
4.9764e-06
4.00311e-08
4.96711e-06
4.0608e-08
4.9576e-06
4.12716e-08
4.94782e-06
4.20501e-08
4.93773e-06
4.29801e-08
4.92724e-06
4.41022e-08
4.91628e-06
4.54793e-08
4.9047e-06
4.7222e-08
4.89238e-06
4.9365e-08
4.87896e-06
5.23536e-08
4.86448e-06
5.56988e-08
4.8477e-06
6.18271e-08
4.82955e-06
6.61034e-08
4.80621e-06
8.29026e-08
4.77934e-06
8.34635e-08
4.74594e-06
1.39685e-07
4.69363e-06
1.21638e-07
4.65934e-06
2.90307e-07
2.89486e-07
4.55688e-06
8.94752e-09
-8.10239e-08
4.65764e-08
-1.69521e-07
8.93007e-08
-1.85602e-07
1.34239e-07
-1.93631e-07
1.81553e-07
-2.02128e-07
2.31687e-07
-2.11927e-07
2.85081e-07
-2.23029e-07
3.42127e-07
-2.35319e-07
4.03158e-07
-2.48641e-07
4.68438e-07
-2.62811e-07
5.38161e-07
-2.77621e-07
6.12437e-07
-2.92845e-07
6.91299e-07
-3.08249e-07
7.74704e-07
-3.23593e-07
8.62535e-07
-3.3865e-07
9.54609e-07
-3.53202e-07
1.05068e-06
-3.67035e-07
1.15042e-06
-3.79953e-07
1.25351e-06
-3.91797e-07
1.35956e-06
-4.02438e-07
1.46818e-06
-4.11752e-07
1.57892e-06
-4.19638e-07
1.69135e-06
-4.26058e-07
1.80503e-06
-4.30997e-07
1.91955e-06
-4.34432e-07
2.03451e-06
-4.36381e-07
2.1495e-06
-4.36891e-07
2.26412e-06
-4.35996e-07
2.37805e-06
-4.33775e-07
2.491e-06
-4.30342e-07
2.60267e-06
-4.25762e-07
2.71276e-06
-4.20087e-07
2.82102e-06
-4.1344e-07
2.92728e-06
-4.05961e-07
3.0314e-06
-3.97731e-07
3.1332e-06
-3.88811e-07
3.2325e-06
-3.79303e-07
3.32923e-06
-3.69321e-07
3.42332e-06
-3.58955e-07
3.51472e-06
-3.48268e-07
3.60336e-06
-3.37326e-07
3.68916e-06
-3.26199e-07
3.77215e-06
-3.14964e-07
3.85235e-06
-3.03686e-07
3.92976e-06
-2.92407e-07
4.00435e-06
-2.81154e-07
4.07615e-06
-2.69971e-07
4.14521e-06
-2.58916e-07
4.21161e-06
-2.48029e-07
4.27535e-06
-2.37314e-07
4.33646e-06
-2.26778e-07
4.39502e-06
-2.16457e-07
4.45109e-06
-2.0639e-07
4.50474e-06
-1.96584e-07
4.55601e-06
-1.87022e-07
4.60495e-06
-1.77708e-07
4.65164e-06
-1.68674e-07
4.69616e-06
-1.59936e-07
4.73857e-06
-1.5148e-07
4.77892e-06
-1.43286e-07
4.81727e-06
-1.35361e-07
4.8537e-06
-1.27721e-07
4.88827e-06
-1.20368e-07
4.92106e-06
-1.13283e-07
4.95211e-06
-1.06454e-07
4.98149e-06
-9.98822e-08
5.00925e-06
-9.35724e-08
5.03547e-06
-8.75171e-08
5.0602e-06
-8.17024e-08
5.08349e-06
-7.61197e-08
5.10539e-06
-7.07674e-08
5.12597e-06
-6.56424e-08
5.14528e-06
-6.07349e-08
5.16337e-06
-5.60343e-08
5.18029e-06
-5.15334e-08
5.19607e-06
-4.72284e-08
5.21078e-06
-4.3113e-08
5.22446e-06
-3.91778e-08
5.23716e-06
-3.54149e-08
5.24891e-06
-3.18201e-08
5.25975e-06
-2.83895e-08
5.26973e-06
-2.51171e-08
5.27888e-06
-2.19957e-08
5.28724e-06
-1.90183e-08
5.29483e-06
-1.6178e-08
5.30169e-06
-1.34671e-08
5.30787e-06
-1.08776e-08
5.3134e-06
-8.40717e-09
5.31831e-06
-6.05393e-09
5.32261e-06
-3.8134e-09
5.32634e-06
-1.6764e-09
5.32953e-06
3.53822e-10
5.33219e-06
2.30211e-09
5.33436e-06
4.148e-09
5.33606e-06
5.90352e-09
5.33732e-06
7.57589e-09
5.33814e-06
9.17034e-09
5.33856e-06
1.06914e-08
5.3386e-06
1.21404e-08
5.33827e-06
1.35192e-08
5.33759e-06
1.48326e-08
5.33657e-06
1.60862e-08
5.33524e-06
1.72849e-08
5.3336e-06
1.84313e-08
5.33168e-06
1.95256e-08
5.32948e-06
2.05672e-08
5.32702e-06
2.15581e-08
5.32432e-06
2.25031e-08
5.32138e-06
2.34083e-08
5.31821e-06
2.4278e-08
5.31483e-06
2.51129e-08
5.31124e-06
2.59116e-08
5.30745e-06
2.66738e-08
5.30348e-06
2.74002e-08
5.29934e-06
2.80953e-08
5.29502e-06
2.87649e-08
5.29054e-06
2.94131e-08
5.28591e-06
3.00405e-08
5.28112e-06
3.06453e-08
5.27619e-06
3.12254e-08
5.27112e-06
3.17796e-08
5.26593e-06
3.23116e-08
5.26061e-06