/*--------------------------------*- C++ -*----------------------------------*\
| =========                 |                                                 |
| \\      /  F ield         | OpenFOAM: The Open Source CFD Toolbox           |
|  \\    /   O peration     | Version:  2.1.x                                 |
|   \\  /    A nd           | Web:      www.OpenFOAM.org                      |
|    \\/     M anipulation  |                                                 |
\*---------------------------------------------------------------------------*/
FoamFile
{
    version     2.0;
    format      ascii;
    class       surfaceScalarField;
    location    "0.002";
    object      phi_0;
}
// * * * * * * * * * * * * * * * * * * * * * * * * * * * * * * * * * * * * * //

dimensions      [0 3 -1 0 0 0 0];

internalField   nonuniform List<scalar> 
24170
(
1.88636e-06
1.2005e-06
1.15187e-06
7.3449e-07
8.45736e-07
3.0613e-07
7.34454e-07
1.11283e-07
6.73429e-07
6.10244e-08
6.70003e-07
3.4267e-09
6.89754e-07
-1.97518e-08
6.49837e-07
3.99179e-08
6.6541e-07
-1.55735e-08
7.94433e-07
-1.29023e-07
8.00728e-07
-6.2952e-09
7.4204e-07
5.86879e-08
8.38618e-07
-9.65774e-08
1.06403e-06
-2.25407e-07
1.07388e-06
-9.85702e-09
1.10159e-06
-2.77086e-08
1.2393e-06
-1.37713e-07
-4.63929e-07
1.70323e-06
3.38546e-06
1.31816e-06
2.90001e-06
1.21993e-06
2.53403e-06
6.72115e-07
2.28462e-06
3.60691e-07
2.13828e-06
2.07369e-07
2.09724e-06
4.44666e-08
2.02431e-06
5.31716e-08
1.94683e-06
1.17397e-07
2.0384e-06
-1.07142e-07
2.20305e-06
-2.93671e-07
2.13052e-06
6.62362e-08
2.14901e-06
4.02019e-08
2.3795e-06
-3.27071e-07
2.64046e-06
-4.86372e-07
2.68648e-06
-5.58773e-08
2.65281e-06
5.96628e-09
2.97841e-06
-4.63312e-07
-9.47345e-07
3.46183e-06
4.13183e-06
1.03667e-06
4.03573e-06
1.31604e-06
3.88863e-06
8.19216e-07
3.68949e-06
5.59826e-07
3.54037e-06
3.5649e-07
3.56921e-06
1.56282e-08
3.42803e-06
1.94349e-07
3.27342e-06
2.72004e-07
3.4226e-06
-2.56322e-07
3.57846e-06
-4.4953e-07
3.42617e-06
2.18529e-07
3.43232e-06
3.40489e-08
3.74137e-06
-6.3612e-07
3.97431e-06
-7.1931e-07
4.03019e-06
-1.11762e-07
4.03803e-06
-1.86711e-09
4.31863e-06
-7.43917e-07
-1.14988e-06
4.52116e-06
4.48006e-06
8.74031e-07
4.55476e-06
1.24134e-06
4.58528e-06
7.88695e-07
4.51639e-06
6.28717e-07
4.54388e-06
3.28997e-07
4.67631e-06
-1.16796e-07
4.52658e-06
3.4408e-07
4.47027e-06
3.28307e-07
4.67355e-06
-4.596e-07
4.61178e-06
-3.87754e-07
4.44617e-06
3.8414e-07
4.59432e-06
-1.14107e-07
4.86501e-06
-9.06812e-07
4.86522e-06
-7.1952e-07
4.77322e-06
-1.97597e-08
4.97234e-06
-2.00987e-07
5.13894e-06
-9.10521e-07
-1.04629e-06
5.03536e-06
4.79014e-06
6.44386e-07
5.03582e-06
9.95654e-07
5.06939e-06
7.55131e-07
5.17045e-06
5.2765e-07
5.208e-06
2.91452e-07
5.15162e-06
-6.04168e-08
5.22771e-06
2.67987e-07
5.36703e-06
1.88995e-07
5.21887e-06
-3.11449e-07
5.08958e-06
-2.58461e-07
5.38113e-06
9.25937e-08
5.53935e-06
-2.72332e-07
5.29058e-06
-6.58044e-07
5.03418e-06
-4.63116e-07
5.30572e-06
-2.91301e-07
5.7348e-06
-6.30064e-07
5.67819e-06
-8.53912e-07
-8.79925e-07
5.51183e-06
5.24386e-06
3.87401e-07
5.37869e-06
8.60823e-07
5.47499e-06
6.5883e-07
5.63693e-06
3.65708e-07
5.67207e-06
2.56318e-07
5.67565e-06
-6.40055e-08
5.85193e-06
9.17119e-08
5.86801e-06
1.72913e-07
5.75429e-06
-1.97723e-07
5.83524e-06
-3.3942e-07
6.00887e-06
-8.10351e-08
5.92825e-06
-1.91707e-07
5.80329e-06
-5.33091e-07
5.88501e-06
-5.44827e-07
6.05523e-06
-4.61522e-07
6.06406e-06
-6.38895e-07
6.02248e-06
-8.12338e-07
-1.06611e-06
6.20867e-06
5.59805e-06
4.45143e-07
5.83718e-06
6.21697e-07
5.93528e-06
5.60724e-07
5.99439e-06
3.06601e-07
6.07706e-06
1.7365e-07
6.07631e-06
-6.32597e-08
6.12912e-06
3.89006e-08
6.23903e-06
6.30106e-08
6.31505e-06
-2.73751e-07
6.30306e-06
-3.27424e-07
6.33551e-06
-1.13492e-07
6.3662e-06
-2.22392e-07
6.4087e-06
-5.75592e-07
6.46138e-06
-5.9751e-07
6.44976e-06
-4.49898e-07
6.42588e-06
-6.15019e-07
6.55485e-06
-9.41303e-07
-1.09266e-06
6.5814e-06
4.57399e-06
3.65827e-07
4.57931e-06
6.16376e-07
4.60168e-06
5.38349e-07
4.64137e-06
2.66912e-07
4.66552e-06
1.49507e-07
4.67154e-06
-6.92828e-08
4.7959e-06
-8.54617e-08
4.891e-06
-3.20932e-08
4.83751e-06
-2.20253e-07
4.86245e-06
-3.52371e-07
4.97736e-06
-2.28393e-07
4.98737e-06
-2.32407e-07
4.90731e-06
-4.95533e-07
4.89052e-06
-5.80715e-07
4.96472e-06
-5.24101e-07
5.08215e-06
-7.32453e-07
5.15348e-06
-1.01263e-06
-1.04563e-06
5.10645e-06
5.1829e-06
3.04723e-07
5.31225e-06
4.87026e-07
5.38862e-06
4.61976e-07
5.40243e-06
2.53103e-07
5.46132e-06
9.06174e-08
5.49344e-06
-1.01398e-07
5.53721e-06
-1.29234e-07
5.60335e-06
-9.82363e-08
5.65075e-06
-2.67653e-07
5.6576e-06
-3.59221e-07
5.65687e-06
-2.27664e-07
5.68687e-06
-2.624e-07
5.73829e-06
-5.46956e-07
5.77658e-06
-6.19008e-07
5.804e-06
-5.51521e-07
5.86054e-06
-7.8899e-07
5.88419e-06
-1.03628e-06
-9.07284e-07
5.74584e-06
6.0393e-06
3.19606e-07
6.12204e-06
4.04286e-07
6.24295e-06
3.41064e-07
6.35145e-06
1.44598e-07
6.40517e-06
3.69009e-08
6.41276e-06
-1.08987e-07
6.45136e-06
-1.67834e-07
6.51389e-06
-1.60765e-07
6.46182e-06
-2.15588e-07
6.42658e-06
-3.23977e-07
6.55007e-06
-3.51159e-07
6.6437e-06
-3.56025e-07
6.56378e-06
-4.67035e-07
6.53495e-06
-5.90179e-07
6.6853e-06
-7.01873e-07
6.7355e-06
-8.39193e-07
6.59233e-06
-8.93106e-07
-1.01337e-06
6.69842e-06
6.92603e-06
3.46067e-07
7.11147e-06
2.18842e-07
7.25417e-06
1.98364e-07
7.29024e-06
1.08526e-07
7.34165e-06
-1.45093e-08
7.36845e-06
-1.35786e-07
7.38782e-06
-1.87199e-07
7.43854e-06
-2.11486e-07
7.50664e-06
-2.83689e-07
7.55624e-06
-3.73576e-07
7.56506e-06
-3.59982e-07
7.56522e-06
-3.56187e-07
7.63075e-06
-5.32562e-07
7.73727e-06
-6.96699e-07
7.72002e-06
-6.8462e-07
7.57954e-06
-6.98715e-07
7.60448e-06
-9.18044e-07
-1.34655e-06
7.93766e-06
8.2244e-06
1.16898e-07
8.31588e-06
1.27355e-07
8.32837e-06
1.85874e-07
8.3525e-06
8.43972e-08
8.39292e-06
-5.49249e-08
8.45571e-06
-1.98578e-07
8.54581e-06
-2.77295e-07
8.6441e-06
-3.09783e-07
8.65918e-06
-2.98768e-07
8.62036e-06
-3.34752e-07
8.65246e-06
-3.92081e-07
8.72905e-06
-4.32775e-07
8.69263e-06
-4.96142e-07
8.60536e-06
-6.09431e-07
8.65706e-06
-7.3632e-07
8.84494e-06
-8.86599e-07
8.9425e-06
-1.0156e-06
-9.95895e-07
8.59184e-06
9.62014e-06
1.50656e-08
9.61737e-06
1.3012e-07
9.65955e-06
1.43695e-07
9.7292e-06
1.47461e-08
9.80402e-06
-1.29739e-07
9.87575e-06
-2.70313e-07
9.9211e-06
-3.22644e-07
9.94469e-06
-3.33372e-07
9.98332e-06
-3.37397e-07
1.00195e-05
-3.70919e-07
1.0018e-05
-3.90633e-07
1.00176e-05
-4.32301e-07
1.00698e-05
-5.48333e-07
1.01462e-05
-6.85858e-07
1.01749e-05
-7.65011e-07
1.01588e-05
-8.70498e-07
1.01183e-05
-9.75099e-07
-9.22059e-07
1.00444e-05
1.12971e-05
-1.26001e-07
1.14246e-05
2.61313e-09
1.1496e-05
7.23242e-08
1.14973e-05
1.34547e-08
1.14738e-05
-1.06293e-07
1.14392e-05
-2.35659e-07
1.14226e-05
-3.06107e-07
1.14429e-05
-3.53698e-07
1.14647e-05
-3.59159e-07
1.14621e-05
-3.68324e-07
1.14891e-05
-4.17658e-07
1.15576e-05
-5.00786e-07
1.15816e-05
-5.72285e-07
1.15704e-05
-6.74667e-07
1.16032e-05
-7.97791e-07
1.16126e-05
-8.79966e-07
1.16115e-05
-9.73932e-07
-1.2191e-06
1.19085e-05
1.28255e-05
-2.33638e-08
1.30888e-05
-2.60665e-07
1.329e-05
-1.28861e-07
1.33623e-05
-5.88857e-08
1.33366e-05
-8.05109e-08
1.32834e-05
-1.8248e-07
1.32556e-05
-2.78331e-07
1.32668e-05
-3.64888e-07
1.33229e-05
-4.15284e-07
1.34168e-05
-4.62243e-07
1.35072e-05
-5.07987e-07
1.35712e-05
-5.64799e-07
1.3633e-05
-6.34073e-07
1.3681e-05
-7.22698e-07
1.36777e-05
-7.9451e-07
1.3668e-05
-8.70255e-07
1.3631e-05
-9.36931e-07
-9.31964e-07
1.33439e-05
1.48521e-05
-2.53888e-07
1.4938e-05
-3.46603e-07
1.5064e-05
-2.54809e-07
1.51917e-05
-1.86614e-07
1.52843e-05
-1.73117e-07
1.53343e-05
-2.32422e-07
1.53802e-05
-3.24252e-07
1.54438e-05
-4.28499e-07
1.55207e-05
-4.92152e-07
1.55865e-05
-5.28071e-07
1.56329e-05
-5.54422e-07
1.56627e-05
-5.94574e-07
1.5663e-05
-6.34352e-07
1.56252e-05
-6.84953e-07
1.55766e-05
-7.45837e-07
1.55169e-05
-8.10617e-07
1.54485e-05
-8.68553e-07
-9.26226e-07
1.54428e-05
1.74567e-05
3.77866e-08
1.72764e-05
-1.66278e-07
1.72703e-05
-2.487e-07
1.73671e-05
-2.83444e-07
1.75253e-05
-3.31287e-07
1.77041e-05
-4.11228e-07
1.7842e-05
-4.6224e-07
1.79032e-05
-4.89646e-07
1.78968e-05
-4.85715e-07
1.7851e-05
-4.82305e-07
1.77898e-05
-4.93273e-07
1.7725e-05
-5.29685e-07
1.76729e-05
-5.82309e-07
1.76388e-05
-6.50828e-07
1.761e-05
-7.17034e-07
1.75766e-05
-7.77264e-07
1.75342e-05
-8.26125e-07
-8.60543e-07
1.74685e-05
1.81472e-05
1.86384e-07
1.80504e-05
-6.94768e-08
1.80393e-05
-2.37668e-07
1.81279e-05
-3.71981e-07
1.82442e-05
-4.47588e-07
1.82993e-05
-4.66327e-07
1.82712e-05
-4.34186e-07
1.81813e-05
-3.99723e-07
1.80722e-05
-3.76586e-07
1.79753e-05
-3.85463e-07
1.79046e-05
-4.22587e-07
1.78613e-05
-4.86306e-07
1.78357e-05
-5.56722e-07
1.78136e-05
-6.28723e-07
1.7785e-05
-6.88456e-07
1.77445e-05
-7.36799e-07
1.76877e-05
-7.69256e-07
-7.86056e-07
1.76132e-05
1.64731e-05
1.59881e-07
1.64555e-05
-5.19116e-08
1.64013e-05
-1.83453e-07
1.63835e-05
-3.5414e-07
1.63869e-05
-4.51045e-07
1.63802e-05
-4.59588e-07
1.63425e-05
-3.96506e-07
1.62704e-05
-3.27554e-07
1.61787e-05
-2.84918e-07
1.60846e-05
-2.9134e-07
1.59981e-05
-3.36096e-07
1.59226e-05
-4.10874e-07
1.58585e-05
-4.92559e-07
1.5801e-05
-5.71229e-07
1.57442e-05
-6.31631e-07
1.56827e-05
-6.75316e-07
1.56141e-05
-7.00681e-07
-7.10631e-07
1.55387e-05
1.41096e-05
6.0073e-08
1.41713e-05
-1.13695e-07
1.42222e-05
-2.34298e-07
1.42274e-05
-3.59324e-07
1.41987e-05
-4.22391e-07
1.41809e-05
-4.41758e-07
1.42054e-05
-4.20996e-07
1.42686e-05
-3.90747e-07
1.43476e-05
-3.63918e-07
1.44162e-05
-3.59975e-07
1.44584e-05
-3.78237e-07
1.44656e-05
-4.18122e-07
1.44371e-05
-4.64026e-07
1.43767e-05
-5.10853e-07
1.42925e-05
-5.47393e-07
1.41923e-05
-5.75137e-07
1.40825e-05
-5.90939e-07
-5.96016e-07
1.39679e-05
1.26819e-05
-1.39371e-07
1.27707e-05
-2.02548e-07
1.28603e-05
-3.23898e-07
1.28817e-05
-3.80701e-07
1.28492e-05
-3.89906e-07
1.28076e-05
-4.00165e-07
1.27951e-05
-4.08489e-07
1.2819e-05
-4.1465e-07
1.28642e-05
-4.0909e-07
1.29091e-05
-4.04927e-07
1.29387e-05
-4.07774e-07
1.29415e-05
-4.20929e-07
1.29127e-05
-4.35226e-07
1.28537e-05
-4.51841e-07
1.27717e-05
-4.65462e-07
1.26745e-05
-4.77938e-07
1.25685e-05
-4.84935e-07
-4.84665e-07
1.24572e-05
1.1312e-05
-2.37786e-07
1.14211e-05
-3.11674e-07
1.15051e-05
-4.07924e-07
1.15422e-05
-4.17798e-07
1.15552e-05
-4.02881e-07
1.15725e-05
-4.17442e-07
1.15974e-05
-4.33405e-07
1.16045e-05
-4.21698e-07
1.15772e-05
-3.81866e-07
1.15203e-05
-3.48021e-07
1.14477e-05
-3.35112e-07
1.13706e-05
-3.43884e-07
1.1296e-05
-3.60644e-07
1.12255e-05
-3.81323e-07
1.11583e-05
-3.98227e-07
1.10924e-05
-4.12034e-07
1.1026e-05
-4.18561e-07
-4.17517e-07
1.09589e-05
1.02866e-05
-1.06824e-07
1.03707e-05
-3.95851e-07
1.04943e-05
-5.31489e-07
1.06262e-05
-5.49689e-07
1.07057e-05
-4.82432e-07
1.07336e-05
-4.45286e-07
1.0722e-05
-4.21791e-07
1.06664e-05
-3.66097e-07
1.05721e-05
-2.87588e-07
1.04631e-05
-2.39005e-07
1.03607e-05
-2.32742e-07
1.02712e-05
-2.54358e-07
1.01919e-05
-2.81338e-07
1.01177e-05
-3.07199e-07
1.00459e-05
-3.26402e-07
9.97445e-06
-3.40561e-07
9.90104e-06
-3.4515e-07
-3.4199e-07
9.82551e-06
9.08319e-06
-2.14927e-07
9.16435e-06
-4.77013e-07
9.32154e-06
-6.88674e-07
9.44419e-06
-6.7234e-07
9.4759e-06
-5.14147e-07
9.45485e-06
-4.24228e-07
9.42324e-06
-3.90181e-07
9.38575e-06
-3.28608e-07
9.33942e-06
-2.41257e-07
9.2906e-06
-1.90185e-07
9.24527e-06
-1.87416e-07
9.19936e-06
-2.08451e-07
9.14697e-06
-2.28948e-07
9.08523e-06
-2.45453e-07
9.01677e-06
-2.57942e-07
8.94389e-06
-2.67685e-07
8.86737e-06
-2.68627e-07
-2.63581e-07
8.78896e-06
8.24631e-06
-3.08334e-07
8.36461e-06
-5.95307e-07
8.46124e-06
-7.85303e-07
8.48907e-06
-7.00172e-07
8.47831e-06
-5.03383e-07
8.48358e-06
-4.29503e-07
8.51413e-06
-4.20726e-07
8.52923e-06
-3.43707e-07
8.50758e-06
-2.19613e-07
8.46408e-06
-1.46679e-07
8.41279e-06
-1.36132e-07
8.35413e-06
-1.49791e-07
8.28501e-06
-1.59826e-07
8.20611e-06
-1.66558e-07
8.12338e-06
-1.75203e-07
8.03915e-06
-1.83456e-07
7.95442e-06
-1.83904e-07
-1.79098e-07
7.86994e-06
7.05829e-06
-4.05412e-07
7.3169e-06
-8.53919e-07
7.53938e-06
-1.00778e-06
7.64112e-06
-8.01911e-07
7.66551e-06
-5.27771e-07
7.66935e-06
-4.33341e-07
7.68361e-06
-4.34983e-07
7.68714e-06
-3.47245e-07
7.66772e-06
-2.00189e-07
7.63378e-06
-1.12742e-07
7.59542e-06
-9.77689e-08
7.54851e-06
-1.02885e-07
7.48722e-06
-9.85316e-08
7.41177e-06
-9.11061e-08
7.32856e-06
-9.2e-08
7.24042e-06
-9.53176e-08
7.15156e-06
-9.50392e-08
-8.96729e-08
7.06213e-06
6.48386e-06
-5.25924e-07
6.77058e-06
-1.14064e-06
6.904e-06
-1.1412e-06
6.92197e-06
-8.19873e-07
6.92637e-06
-5.32175e-07
6.93015e-06
-4.37122e-07
6.92204e-06
-4.2687e-07
6.89198e-06
-3.17189e-07
6.84524e-06
-1.53448e-07
6.78734e-06
-5.48355e-08
6.72507e-06
-3.55076e-08
6.65772e-06
-3.55351e-08
6.58491e-06
-2.5712e-08
6.50909e-06
-1.52955e-08
6.43358e-06
-1.64879e-08
6.35948e-06
-2.1218e-08
6.28885e-06
-2.44073e-08
-2.00135e-08
6.21919e-06
5.95763e-06
-8.58679e-07
6.1019e-06
-1.28491e-06
6.02228e-06
-1.06159e-06
5.90871e-06
-7.063e-07
5.82303e-06
-4.4649e-07
5.72855e-06
-3.42644e-07
5.59882e-06
-2.97143e-07
5.47572e-06
-1.94091e-07
5.3878e-06
-6.5526e-08
5.32786e-06
5.10936e-09
5.2839e-06
8.44604e-09
5.24815e-06
2.18371e-10
5.22069e-06
1.7477e-09
5.19703e-06
8.36762e-09
5.17302e-06
7.51461e-09
5.14728e-06
4.52969e-09
5.12135e-06
1.51626e-09
7.10621e-09
5.09423e-06
5.12808e-06
-9.52115e-07
4.87154e-06
-1.02838e-06
4.45524e-06
-6.45283e-07
4.1054e-06
-3.56463e-07
3.84086e-06
-1.81953e-07
3.60522e-06
-1.07001e-07
3.38443e-06
-7.63516e-08
3.23208e-06
-4.17461e-08
3.16637e-06
1.877e-10
3.15502e-06
1.64569e-08
3.15542e-06
8.04629e-09
3.15619e-06
-5.44568e-10
3.15884e-06
-9.04885e-10
3.16389e-06
3.31428e-09
3.16892e-06
2.48399e-09
3.17189e-06
1.56349e-09
3.17948e-06
-6.07096e-09
2.73707e-09
3.18385e-06
3.37914e-06
2.35076e-06
1.70548e-06
1.34902e-06
1.16706e-06
1.06006e-06
9.83709e-07
9.41963e-07
9.42151e-07
9.58608e-07
9.66654e-07
9.6611e-07
9.65205e-07
9.68519e-07
9.71003e-07
9.72566e-07
9.66495e-07
9.69233e-07
2.82669e-08
-2.82669e-08
7.2602e-08
-4.4335e-08
1.20199e-07
-4.75969e-08
1.69692e-07
-4.94932e-08
2.21129e-07
-5.1437e-08
2.74722e-07
-5.35931e-08
3.30696e-07
-5.59742e-08
3.89263e-07
-5.85669e-08
4.50611e-07
-6.13479e-08
5.14897e-07
-6.42863e-08
5.82243e-07
-6.73458e-08
6.52728e-07
-7.04849e-08
7.26387e-07
-7.36586e-08
8.03207e-07
-7.68202e-08
8.83129e-07
-7.99225e-08
9.66048e-07
-8.29191e-08
1.05181e-06
-8.57648e-08
1.14023e-06
-8.84173e-08
1.23107e-06
-9.08402e-08
1.32407e-06
-9.29999e-08
1.41894e-06
-9.48663e-08
1.51535e-06
-9.64166e-08
1.61299e-06
-9.76376e-08
1.71151e-06
-9.85198e-08
1.81056e-06
-9.90525e-08
1.9098e-06
-9.92341e-08
2.00888e-06
-9.9078e-08
2.10747e-06
-9.85947e-08
2.20526e-06
-9.7788e-08
2.30193e-06
-9.66739e-08
2.39721e-06
-9.52796e-08
2.49084e-06
-9.36281e-08
2.58258e-06
-9.17402e-08
2.67222e-06
-8.96376e-08
2.75956e-06
-8.73406e-08
2.84443e-06
-8.48758e-08
2.92671e-06
-8.22766e-08
3.00628e-06
-7.95673e-08
3.08304e-06
-7.67579e-08
3.1569e-06
-7.38667e-08
3.22783e-06
-7.09281e-08
3.2958e-06
-6.79666e-08
3.36078e-06
-6.49859e-08
3.42278e-06
-6.1994e-08
3.48179e-06
-5.90174e-08
3.53787e-06
-5.60783e-08
3.59105e-06
-5.31779e-08
3.64137e-06
-5.03151e-08
3.68887e-06
-4.7506e-08
3.73364e-06
-4.47693e-08
3.77575e-06
-4.21058e-08
3.81526e-06
-3.95091e-08
3.85224e-06
-3.69854e-08
3.88679e-06
-3.45476e-08
3.91899e-06
-3.21983e-08
3.94892e-06
-2.99298e-08
3.97666e-06
-2.77404e-08
4.0023e-06
-2.56374e-08
4.02592e-06
-2.36239e-08
4.04761e-06
-2.16932e-08
4.06745e-06
-1.98402e-08
4.08552e-06
-1.80677e-08
4.1019e-06
-1.63779e-08
4.11666e-06
-1.47656e-08
4.12989e-06
-1.32238e-08
4.14164e-06
-1.17524e-08
4.15199e-06
-1.03542e-08
4.16102e-06
-9.02609e-09
4.16878e-06
-7.76021e-09
4.17533e-06
-6.55205e-09
4.18074e-06
-5.404e-09
4.18505e-06
-4.31761e-09
4.18834e-06
-3.28775e-09
4.19065e-06
-2.30813e-09
4.19203e-06
-1.3815e-09
4.19256e-06
-5.26451e-10
4.19228e-06
2.74657e-10
4.19116e-06
1.12828e-09
4.18926e-06
1.89844e-09
4.18664e-06
2.62006e-09
4.18334e-06
3.2975e-09
4.17941e-06
3.93352e-09
4.17487e-06
4.53519e-09
4.16976e-06
5.10834e-09
4.16411e-06
5.65426e-09
4.15793e-06
6.17695e-09
4.15126e-06
6.67172e-09
4.14412e-06
7.13834e-09
4.13654e-06
7.58443e-09
4.12853e-06
8.01023e-09
4.12011e-06
8.41386e-09
4.11132e-06
8.79463e-09
4.10216e-06
9.15475e-09
4.09266e-06
9.50097e-09
4.08283e-06
9.83485e-09
4.07268e-06
1.0151e-08
4.06223e-06
1.04483e-08
4.0515e-06
1.07309e-08
4.04049e-06
1.10035e-08
4.02923e-06
1.1268e-08
4.0177e-06
1.15233e-08
4.00594e-06
1.17662e-08
3.99394e-06
1.19956e-08
3.98173e-06
1.22138e-08
3.9693e-06
1.2425e-08
3.95667e-06
1.26311e-08
3.94384e-06
1.28306e-08
3.93082e-06
1.30209e-08
3.91762e-06
1.32011e-08
3.90424e-06
1.33732e-08
3.8907e-06
1.35402e-08
3.877e-06
1.37039e-08
3.86314e-06
1.38635e-08
3.84912e-06
1.40175e-08
3.83495e-06
1.41651e-08
3.82065e-06
1.43071e-08
3.8062e-06
1.44448e-08
3.79162e-06
1.45796e-08
3.77691e-06
1.47118e-08
3.76207e-06
1.48411e-08
3.7471e-06
1.49672e-08
3.73201e-06
1.50896e-08
3.71681e-06
1.52082e-08
3.70148e-06
1.53228e-08
3.68605e-06
1.54344e-08
3.6705e-06
1.55444e-08
3.65485e-06
1.56543e-08
3.63909e-06
1.57637e-08
3.62321e-06
1.58715e-08
3.60724e-06
1.59762e-08
3.59116e-06
1.6077e-08
3.57499e-06
1.6175e-08
3.55871e-06
1.62722e-08
3.54234e-06
1.63704e-08
3.52587e-06
1.64694e-08
3.50931e-06
1.65678e-08
3.49264e-06
1.66635e-08
3.47589e-06
1.67557e-08
3.45904e-06
1.68456e-08
3.44211e-06
1.69351e-08
3.42508e-06
1.70255e-08
3.40796e-06
1.71165e-08
3.39076e-06
1.72068e-08
3.37346e-06
1.72956e-08
3.35608e-06
1.73821e-08
3.33861e-06
1.74667e-08
3.32106e-06
1.75511e-08
3.30343e-06
1.76366e-08
3.2857e-06
1.77233e-08
3.26789e-06
1.78102e-08
3.24999e-06
1.78967e-08
3.23201e-06
1.79828e-08
3.21394e-06
1.80684e-08
3.19579e-06
1.81541e-08
3.17755e-06
1.8241e-08
3.15922e-06
1.83309e-08
3.14079e-06
1.84248e-08
3.12227e-06
1.85239e-08
3.10364e-06
1.86291e-08
3.0849e-06
1.87405e-08
3.06604e-06
1.88607e-08
3.04705e-06
1.89924e-08
3.02791e-06
1.91394e-08
3.0086e-06
1.93081e-08
2.98909e-06
1.95051e-08
2.96935e-06
1.97404e-08
2.94933e-06
2.00234e-08
2.92896e-06
2.03728e-08
2.90815e-06
2.08101e-08
2.88678e-06
2.13692e-08
2.86464e-06
2.21336e-08
2.84163e-06
2.30095e-08
2.81685e-06
2.47869e-08
2.79144e-06
2.54038e-08
2.75946e-06
3.1988e-08
2.73259e-06
2.68615e-08
2.67615e-06
5.64415e-08
2.65145e-06
2.46991e-08
2.50415e-06
1.47307e-07
7.78702e-08
2.42628e-06
2.55692e-08
-5.38361e-08
7.10812e-08
-8.9847e-08
1.20085e-07
-9.66002e-08
1.70969e-07
-1.00378e-07
2.23869e-07
-1.04336e-07
2.79072e-07
-1.08796e-07
3.36865e-07
-1.13767e-07
3.9751e-07
-1.19212e-07
4.61237e-07
-1.25075e-07
5.28239e-07
-1.31288e-07
5.98669e-07
-1.37776e-07
6.72638e-07
-1.44454e-07
7.50204e-07
-1.51225e-07
8.31375e-07
-1.57991e-07
9.16105e-07
-1.64653e-07
1.0043e-06
-1.71116e-07
1.09582e-06
-1.77287e-07
1.19048e-06
-1.83078e-07
1.28806e-06
-1.88414e-07
1.38829e-06
-1.93229e-07
1.49088e-06
-1.97465e-07
1.59554e-06
-2.0107e-07
1.70191e-06
-2.04013e-07
1.80967e-06
-2.06278e-07
1.91847e-06
-2.07852e-07
2.02797e-06
-2.08733e-07
2.13782e-06
-2.08932e-07
2.24769e-06
-2.08462e-07
2.35725e-06
-2.07348e-07
2.46622e-06
-2.05641e-07
2.57431e-06
-2.03375e-07
2.68125e-06
-2.00565e-07
2.78677e-06
-1.9726e-07
2.89067e-06
-1.93533e-07
2.99275e-06
-1.8943e-07
3.09285e-06
-1.8497e-07
3.19077e-06
-1.80199e-07
3.28639e-06
-1.75184e-07
3.3796e-06
-1.69975e-07
3.47033e-06
-1.6459e-07
3.55846e-06
-1.59063e-07
3.64394e-06
-1.53443e-07
3.72673e-06
-1.47774e-07
3.80681e-06
-1.42076e-07
3.88416e-06
-1.36368e-07
3.95876e-06
-1.30678e-07
4.03062e-06
-1.25033e-07
4.09976e-06
-1.19458e-07
4.16622e-06
-1.13964e-07
4.23001e-06
-1.08562e-07
4.29117e-06
-1.03264e-07
4.34974e-06
-9.80854e-08
4.4058e-06
-9.304e-08
4.45938e-06
-8.81294e-08
4.51053e-06
-8.33525e-08
4.55932e-06
-7.87155e-08
4.60581e-06
-7.423e-08
4.65007e-06
-6.98986e-08
4.69216e-06
-6.57136e-08
4.73214e-06
-6.16706e-08
4.77007e-06
-5.77749e-08
4.80604e-06
-5.40326e-08
4.8401e-06
-5.0438e-08
4.87231e-06
-4.69807e-08
4.90275e-06
-4.36578e-08
4.93147e-06
-4.0474e-08
4.95854e-06
-3.74285e-08
4.98403e-06
-3.45115e-08
5.00798e-06
-3.17142e-08
5.03047e-06
-2.90364e-08
5.05154e-06
-2.6481e-08
5.07127e-06
-2.40435e-08
5.0897e-06
-2.17137e-08
5.10687e-06
-1.9486e-08
5.12285e-06
-1.73633e-08
5.13767e-06
-1.53464e-08
5.15137e-06
-1.34162e-08
5.16405e-06
-1.15521e-08
5.17572e-06
-9.77898e-09
5.18644e-06
-8.09574e-09
5.19624e-06
-6.4985e-09
5.20515e-06
-4.98064e-09
5.21322e-06
-3.53446e-09
5.22048e-06
-2.15762e-09
5.227e-06
-8.60974e-10
5.23282e-06
3.60699e-10
5.2379e-06
1.58656e-09
5.24231e-06
2.73089e-09
5.24607e-06
3.81861e-09
5.24923e-06
4.85174e-09
5.25181e-06
5.83215e-09
5.25385e-06
6.76331e-09
5.25535e-06
7.65183e-09
5.25635e-06
8.50197e-09
5.25687e-06
9.31334e-09
5.25694e-06
1.00827e-08
5.25657e-06
1.08131e-08
5.25579e-06
1.1511e-08
5.25462e-06
1.21804e-08
5.25306e-06
1.28213e-08
5.25115e-06
1.34328e-08
5.2489e-06
1.40147e-08
5.24633e-06
1.45698e-08
5.24344e-06
1.51019e-08
5.24025e-06
1.56135e-08
5.23678e-06
1.61048e-08
5.23304e-06
1.65743e-08
5.22904e-06
1.70217e-08
5.22479e-06
1.74493e-08
5.2203e-06
1.78603e-08
5.21558e-06
1.82577e-08
5.21065e-06
1.86415e-08
5.2055e-06
1.90108e-08
5.20015e-06
1.93649e-08
5.19461e-06
1.97046e-08
5.18889e-06
2.00319e-08
5.18298e-06
2.03494e-08
5.1769e-06
2.06588e-08
5.17065e-06
2.09599e-08
5.16424e-06
2.12519e-08
5.15768e-06
2.15342e-08
5.15096e-06
2.18065e-08
5.1441e-06
2.207e-08
5.13709e-06
2.23263e-08
5.12995e-06
2.25773e-08
5.12267e-06
2.28243e-08
5.11526e-06
2.30675e-08
5.10772e-06
2.33062e-08
5.10005e-06
2.35392e-08
5.09226e-06
2.37663e-08
5.08435e-06
2.39878e-08
5.07632e-06
2.42056e-08
5.06817e-06
2.44214e-08
5.0599e-06
2.46366e-08
5.05152e-06
2.48511e-08
5.04302e-06
2.50631e-08
5.03442e-06
2.52711e-08
5.0257e-06
2.54749e-08
5.01687e-06
2.56764e-08
5.00792e-06
2.58776e-08
4.99887e-06
2.60795e-08
4.98971e-06
2.62815e-08
4.98043e-06
2.64823e-08
4.97104e-06
2.66811e-08
4.96155e-06
2.68774e-08
4.95194e-06
2.70726e-08
4.94223e-06
2.7269e-08
4.93239e-06
2.74683e-08
4.92245e-06
2.76701e-08
4.91238e-06
2.78733e-08
4.9022e-06
2.80774e-08
4.8919e-06
2.82828e-08
4.88148e-06
2.84899e-08
4.87093e-06
2.8701e-08
4.86026e-06
2.89181e-08
4.84945e-06
2.91432e-08
4.83849e-06
2.93793e-08
4.82739e-06
2.96286e-08
4.81612e-06
2.98944e-08
4.80468e-06
3.01797e-08
4.79305e-06
3.04897e-08
4.78121e-06
3.08327e-08
4.76913e-06
3.12176e-08
4.75678e-06
3.16576e-08
4.74412e-06
3.21705e-08
4.73108e-06
3.27794e-08
4.71759e-06
3.35092e-08
4.70356e-06
3.44038e-08
4.68885e-06
3.55218e-08
4.67329e-06
3.69258e-08
4.65662e-06
3.88073e-08
4.63855e-06
4.10783e-08
4.61846e-06
4.48823e-08
4.59605e-06
4.78082e-08
4.56875e-06
5.92904e-08
4.53914e-06
5.64719e-08
4.48986e-06
1.05726e-07
4.44532e-06
6.92317e-08
4.33745e-06
2.55181e-07
1.85896e-07
4.22942e-06
1.87534e-08
-7.25895e-08
6.121e-08
-1.32304e-07
1.07846e-07
-1.43237e-07
1.56492e-07
-1.49024e-07
2.07271e-07
-1.55115e-07
2.60529e-07
-1.62054e-07
3.16609e-07
-1.69847e-07
3.75823e-07
-1.78426e-07
4.38443e-07
-1.87695e-07
5.04693e-07
-1.97538e-07
5.7474e-07
-2.07823e-07
6.48689e-07
-2.18403e-07
7.26587e-07
-2.29123e-07
8.08421e-07
-2.39825e-07
8.9412e-07
-2.50352e-07
9.83561e-07
-2.60556e-07
1.07657e-06
-2.70292e-07
1.17291e-06
-2.79423e-07
1.27233e-06
-2.87831e-07
1.37451e-06
-2.95409e-07
1.47911e-06
-3.02068e-07
1.58579e-06
-3.07745e-07
1.69418e-06
-3.12405e-07
1.80392e-06
-3.16018e-07
1.91462e-06
-3.18549e-07
2.02589e-06
-3.20009e-07
2.13741e-06
-3.20451e-07
2.24884e-06
-3.19891e-07
2.35983e-06
-3.1834e-07
2.47006e-06
-3.15867e-07
2.57924e-06
-3.12558e-07
2.68715e-06
-3.0847e-07
2.79354e-06
-3.03655e-07
2.89819e-06
-2.9818e-07
3.00088e-06
-2.92117e-07
3.10146e-06
-2.85549e-07
3.19981e-06
-2.78555e-07
3.29581e-06
-2.71188e-07
3.38933e-06
-2.63489e-07
3.48027e-06
-2.55531e-07
3.56861e-06
-2.47401e-07
3.65431e-06
-2.39141e-07
3.7373e-06
-2.30767e-07
3.81755e-06
-2.22325e-07
3.89507e-06
-2.13887e-07
3.96988e-06
-2.05495e-07
4.042e-06
-1.97151e-07
4.11141e-06
-1.88871e-07
4.17815e-06
-1.80703e-07
4.24228e-06
-1.72686e-07
4.30383e-06
-1.64821e-07
4.36285e-06
-1.57105e-07
4.41937e-06
-1.49561e-07
4.47346e-06
-1.42215e-07
4.52518e-06
-1.35073e-07
4.57459e-06
-1.28129e-07
4.62175e-06
-1.21384e-07
4.6667e-06
-1.1485e-07
4.70952e-06
-1.08536e-07
4.75029e-06
-1.02435e-07
4.78905e-06
-9.65418e-08
4.82588e-06
-9.08567e-08
4.86082e-06
-8.53822e-08
4.89396e-06
-8.01149e-08
4.92535e-06
-7.50487e-08
4.95505e-06
-7.01797e-08
4.98313e-06
-6.55044e-08
5.00963e-06
-6.10176e-08
5.03463e-06
-5.67139e-08
5.05819e-06
-5.25892e-08
5.08035e-06
-4.86402e-08
5.10116e-06
-4.48604e-08
5.12069e-06
-4.12414e-08
5.13898e-06
-3.77783e-08
5.15609e-06
-3.44684e-08
5.17205e-06
-3.1307e-08
5.18692e-06
-2.82847e-08
5.20076e-06
-2.53912e-08
5.2136e-06
-2.26257e-08
5.2255e-06
-1.99877e-08
5.23647e-06
-1.74738e-08
5.24657e-06
-1.50783e-08
5.25583e-06
-1.27956e-08
5.26429e-06
-1.06223e-08
5.27199e-06
-8.55575e-09
5.27893e-06
-6.58289e-09
5.2852e-06
-4.6821e-09
5.2908e-06
-2.87114e-09
5.29577e-06
-1.14913e-09
5.30014e-06
4.79348e-10
5.30394e-06
2.03887e-09
5.30718e-06
3.51989e-09
5.30989e-06
4.93696e-09
5.31211e-06
6.28582e-09
5.31386e-06
7.56799e-09
5.31515e-06
8.78785e-09
5.31601e-06
9.94979e-09
5.31647e-06
1.10592e-08
5.31653e-06
1.21179e-08
5.31622e-06
1.31267e-08
5.31557e-06
1.40876e-08
5.31458e-06
1.50044e-08
5.31327e-06
1.58814e-08
5.31165e-06
1.6721e-08
5.30974e-06
1.75238e-08
5.30755e-06
1.82893e-08
5.30511e-06
1.90184e-08
5.30242e-06
1.97139e-08
5.29949e-06
2.03801e-08
5.29633e-06
2.10205e-08
5.29295e-06
2.16365e-08
5.28936e-06
2.22274e-08
5.28558e-06
2.27925e-08
5.28161e-06
2.33324e-08
5.27747e-06
2.38497e-08
5.27315e-06
2.43479e-08
5.26867e-06
2.48307e-08
5.26403e-06
2.5299e-08
5.25924e-06
2.5752e-08
5.2543e-06
2.61882e-08
5.24923e-06
2.66066e-08
5.24403e-06
2.70087e-08
5.2387e-06
2.73982e-08
5.23325e-06
2.77782e-08
5.22767e-06
2.81503e-08
5.22198e-06
2.85141e-08
5.21618e-06
2.88683e-08
5.21028e-06
2.92118e-08
5.20427e-06
2.95457e-08
5.19817e-06
2.98712e-08
5.19196e-06
3.01903e-08
5.18566e-06
3.05043e-08
5.17927e-06
3.0814e-08
5.17279e-06
3.11196e-08
5.16622e-06
3.14214e-08
5.15956e-06
3.17185e-08
5.15282e-06
3.20102e-08
5.146e-06
3.22975e-08
5.13909e-06
3.25825e-08
5.13211e-06
3.28663e-08
5.12504e-06
3.31493e-08
5.11789e-06
3.34307e-08
5.11066e-06
3.37099e-08
5.10335e-06
3.39858e-08
5.09597e-06
3.42591e-08
5.08851e-06
3.4532e-08
5.08098e-06
3.48073e-08
5.07336e-06
3.50863e-08
5.06566e-06
3.53676e-08
5.05788e-06
3.565e-08
5.05003e-06
3.59342e-08
5.04209e-06
3.6221e-08
5.03407e-06
3.65119e-08
5.02596e-06
3.68102e-08
5.01776e-06
3.71189e-08
5.00946e-06
3.74395e-08
5.00106e-06
3.77765e-08
4.99256e-06
3.81337e-08
4.98394e-06
3.85159e-08
4.97519e-06
3.89307e-08
4.96629e-06
3.93855e-08
4.95723e-06
3.98933e-08
4.94798e-06
4.04686e-08
4.93851e-06
4.11302e-08
4.92877e-06
4.19063e-08
4.91872e-06
4.28332e-08
4.90827e-06
4.39512e-08
4.89735e-06
4.53235e-08
4.88582e-06
4.70591e-08
4.87355e-06
4.9195e-08
4.86019e-06
5.21684e-08
4.84576e-06
5.55076e-08
4.82905e-06
6.15921e-08
4.81097e-06
6.58904e-08
4.78772e-06
8.25365e-08
4.76094e-06
8.32514e-08
4.72765e-06
1.39014e-07
4.67554e-06
1.21346e-07
4.64147e-06
2.89247e-07
2.88228e-07
4.53914e-06
9.14505e-09
-8.17345e-08
4.69773e-08
-1.70136e-07
8.98796e-08
-1.86139e-07
1.34986e-07
-1.9413e-07
1.82456e-07
-2.02586e-07
2.32731e-07
-2.12329e-07
2.86246e-07
-2.23362e-07
3.43389e-07
-2.35569e-07
4.04489e-07
-2.48795e-07
4.69806e-07
-2.62856e-07
5.3953e-07
-2.77547e-07
6.13769e-07
-2.92642e-07
6.92555e-07
-3.07908e-07
7.7584e-07
-3.2311e-07
8.63508e-07
-3.3802e-07
9.55376e-07
-3.52424e-07
1.05119e-06
-3.6611e-07
1.15065e-06
-3.78882e-07
1.25341e-06
-3.90585e-07
1.35909e-06
-4.01093e-07
1.4673e-06
-4.10281e-07
1.57761e-06
-4.18051e-07
1.68957e-06
-4.24365e-07
1.80276e-06
-4.29211e-07
1.91678e-06
-4.32565e-07
2.03121e-06
-4.34446e-07
2.14566e-06
-4.34899e-07
2.25973e-06
-4.33961e-07
2.3731e-06
-4.31709e-07
2.48549e-06
-4.28256e-07
2.5966e-06
-4.23667e-07
2.70612e-06
-4.17994e-07
2.81383e-06
-4.11358e-07
2.91954e-06
-4.03898e-07
3.02312e-06
-3.95694e-07
3.12438e-06
-3.86808e-07
3.22316e-06
-3.77338e-07
3.31938e-06
-3.67402e-07
3.41297e-06
-3.57084e-07
3.50389e-06
-3.4645e-07
3.59205e-06
-3.35561e-07
3.6774e-06
-3.24492e-07
3.75995e-06
-3.13316e-07
3.83972e-06
-3.02098e-07
3.91672e-06
-2.90879e-07
3.99091e-06
-2.79687e-07
4.06232e-06
-2.68565e-07
4.13102e-06
-2.57571e-07
4.19706e-06
-2.46744e-07
4.26047e-06
-2.36088e-07
4.32125e-06
-2.25609e-07
4.37949e-06
-2.15345e-07
4.43527e-06
-2.05334e-07
4.48863e-06
-1.95582e-07
4.53963e-06
-1.86072e-07
4.58831e-06
-1.76809e-07
4.63475e-06
-1.67824e-07
4.67904e-06
-1.59133e-07
4.72122e-06
-1.50722e-07
4.76136e-06
-1.42573e-07
4.79951e-06
-1.34689e-07
4.83574e-06
-1.27091e-07
4.87013e-06
-1.19776e-07
4.90275e-06
-1.12729e-07
4.93363e-06
-1.05935e-07
4.96285e-06
-9.93973e-08
4.99047e-06
-9.31201e-08
5.01655e-06
-8.7096e-08
5.04114e-06
-8.13108e-08
5.06431e-06
-7.57563e-08
5.0861e-06
-7.04309e-08
5.10657e-06
-6.53315e-08
5.12578e-06
-6.04484e-08
5.14377e-06
-5.5771e-08
5.1606e-06
-5.12922e-08
5.1763e-06
-4.70083e-08
5.19093e-06
-4.2913e-08
5.20453e-06
-3.89967e-08
5.21716e-06
-3.52516e-08
5.22884e-06
-3.16737e-08
5.23963e-06
-2.82593e-08
5.24955e-06
-2.50021e-08
5.25865e-06
-2.1895e-08
5.26696e-06
-1.89313e-08
5.27451e-06
-1.61041e-08
5.28133e-06
-1.34059e-08
5.28748e-06
-1.08282e-08
5.29298e-06
-8.36887e-09
5.29785e-06
-6.02611e-09
5.30213e-06
-3.79557e-09
5.30583e-06
-1.66799e-09
5.309e-06
3.53421e-10
5.31165e-06
2.29317e-09
5.3138e-06
4.13098e-09
5.31549e-06
5.87889e-09
5.31673e-06
7.54407e-09
5.31755e-06
9.13172e-09
5.31796e-06
1.06463e-08
5.31799e-06
1.20892e-08
5.31766e-06
1.34622e-08
5.31697e-06
1.47701e-08
5.31596e-06
1.60186e-08
5.31463e-06
1.72125e-08
5.313e-06
1.83542e-08
5.31108e-06
1.94441e-08
5.30888e-06
2.04814e-08
5.30643e-06
2.14685e-08
5.30374e-06
2.24097e-08
5.30081e-06
2.33114e-08
5.29765e-06
2.41778e-08
5.29428e-06
2.50095e-08
5.2907e-06
2.58053e-08
5.28693e-06
2.65646e-08
5.28297e-06
2.72883e-08
5.27884e-06
2.79808e-08
5.27454e-06
2.8648e-08
5.27008e-06
2.92939e-08
5.26546e-06
2.99191e-08
5.26069e-06
3.05218e-08
5.25577e-06
3.11e-08
5.25073e-06
3.16522e-08
5.24556e-06