/*--------------------------------*- C++ -*----------------------------------*\
| =========                 |                                                 |
| \\      /  F ield         | OpenFOAM: The Open Source CFD Toolbox           |
|  \\    /   O peration     | Version:  2.1.x                                 |
|   \\  /    A nd           | Web:      www.OpenFOAM.org                      |
|    \\/     M anipulation  |                                                 |
\*---------------------------------------------------------------------------*/
FoamFile
{
    version     2.0;
    format      ascii;
    class       volScalarField;
    location    "0.002";
    object      pMean;
}
// * * * * * * * * * * * * * * * * * * * * * * * * * * * * * * * * * * * * * //

dimensions      [0 2 -2 0 0 0 0];

internalField   nonuniform List<scalar> 
12225
(
490.84
470.384
461.212
456.867
453.202
449.498
445.41
441.251
437.012
432.722
427.779
423.032
417.719
411.806
404.535
394.815
383.81
357.469
487.978
470.139
461.294
456.928
453.231
449.5
445.394
441.24
437.007
432.725
427.816
422.987
417.833
411.833
404.58
395.813
384.157
370.462
486.168
470.325
461.788
457.212
453.391
449.614
445.456
441.246
437.052
432.747
427.925
422.992
418.027
411.943
405.174
396.918
387.795
377.454
484.666
470.472
462.279
457.55
453.622
449.809
445.629
441.397
437.175
432.894
428.149
423.309
418.399
412.685
406.269
399.119
391.494
383.372
483.217
470.495
462.761
457.911
453.906
450.05
445.903
441.57
437.364
433.101
428.494
423.79
419.025
413.682
407.787
401.576
395.196
388.993
481.766
470.412
463.172
458.284
454.21
450.283
446.215
441.871
437.625
433.385
428.944
424.367
419.783
414.766
409.412
403.993
398.707
393.754
480.263
470.192
463.485
458.643
454.498
450.569
446.506
442.205
437.939
433.756
429.463
425.074
420.688
416.076
411.27
406.566
402.184
398.191
479.535
470.014
463.709
458.934
454.782
450.812
446.795
442.538
438.272
434.147
429.996
425.786
421.603
417.327
412.952
408.774
404.968
401.573
479.048
469.863
463.867
459.206
455.045
451.07
447.072
442.876
438.649
434.564
430.545
426.51
422.506
418.509
414.513
410.728
407.338
404.412
478.303
469.641
463.993
459.452
455.324
451.369
447.387
443.272
439.097
435.076
431.208
427.372
423.583
419.875
416.237
412.829
409.834
407.254
477.941
469.517
464.125
459.748
455.68
451.725
447.795
443.748
439.657
435.742
432.035
428.412
424.851
421.41
418.116
415.069
412.39
410.109
477.724
469.404
464.24
460.047
456.055
452.167
448.276
444.308
440.343
436.553
432.993
429.592
426.289
423.111
420.118
417.387
414.988
412.928
477.344
469.321
464.375
460.353
456.478
452.656
448.841
444.984
441.146
437.497
434.127
430.958
427.886
424.952
422.242
419.784
417.602
415.739
477.49
469.456
464.622
460.739
456.982
453.257
449.536
445.785
442.086
438.611
435.426
432.453
429.616
426.929
424.44
422.192
420.216
418.501
477.422
469.522
464.89
461.178
457.553
453.943
450.336
446.716
443.171
439.862
436.857
434.088
431.464
428.974
426.679
424.619
422.786
421.179
477.678
469.944
465.393
461.77
458.252
454.758
451.277
447.794
444.399
441.256
438.426
435.832
433.382
431.066
428.929
426.997
425.274
423.752
478.077
470.386
465.968
462.465
459.038
455.648
452.284
448.929
445.68
442.696
440.022
437.575
435.266
433.083
431.065
429.237
427.595
426.121
479.083
471.246
466.729
463.226
459.875
456.567
453.288
450.032
446.9
444.039
441.486
439.154
436.952
434.866
432.934
431.175
429.583
428.14
480.189
472.138
467.472
463.941
460.603
457.325
454.102
450.923
447.873
445.094
442.622
440.366
438.234
436.212
434.334
432.619
431.058
429.634
480.535
472.61
468.07
464.543
461.172
457.897
454.713
451.587
448.591
445.868
443.452
441.25
439.168
437.187
435.342
433.653
432.111
430.698
480.941
473.23
468.677
465.042
461.595
458.307
455.15
452.066
449.114
446.431
444.055
441.89
439.839
437.884
436.061
434.389
432.859
431.453
481.808
473.909
469.17
465.395
461.875
458.568
455.429
452.378
449.464
446.82
444.476
442.336
440.304
438.368
436.561
434.903
433.382
431.98
482.8
474.665
469.629
465.638
462.024
458.702
455.581
452.563
449.686
447.075
444.757
442.635
440.618
438.696
436.902
435.255
433.741
432.346
483.925
475.383
469.971
465.738
462.04
458.723
455.631
452.65
449.815
447.239
444.942
442.832
440.825
438.912
437.127
435.487
433.977
432.588
485.339
476.145
470.218
465.718
461.95
458.655
455.598
452.66
449.876
447.341
445.062
442.955
440.951
439.045
437.266
435.627
434.118
432.732
486.54
476.777
470.294
465.539
461.744
458.49
455.48
452.6
449.879
447.386
445.121
443.014
441.013
439.114
437.34
435.699
434.188
432.803
488.105
477.364
470.224
465.259
461.473
458.256
455.296
452.501
449.871
447.426
445.16
443.041
441.037
439.143
437.369
435.721
434.201
432.813
490.027
477.843
469.961
464.881
461.173
458.002
455.078
452.355
449.816
447.425
445.165
443.034
441.03
439.142
437.369
435.712
434.177
432.776
491.912
478.163
469.475
464.363
460.797
457.765
454.954
452.311
449.815
447.434
445.167
443.027
441.02
439.132
437.355
435.681
434.115
432.66
495.06
478.957
469.54
464.288
460.685
457.686
454.93
452.325
449.841
447.46
445.189
443.049
441.04
439.152
437.376
435.702
434.141
432.684
401.698
401.7
401.698
401.691
401.679
401.661
401.637
401.606
401.567
401.519
401.461
401.392
401.311
401.217
401.108
400.984
400.843
400.684
400.506
400.308
400.09
399.85
399.587
399.302
398.993
398.661
398.304
397.922
397.516
397.085
396.63
396.15
395.646
395.119
394.567
393.992
393.395
392.775
392.133
391.469
390.785
390.08
389.355
388.61
387.847
387.065
386.264
385.447
384.612
383.76
382.892
382.008
381.109
380.194
379.264
378.32
377.361
376.389
375.402
374.402
373.389
372.363
371.324
370.272
369.207
368.131
367.041
365.94
364.827
363.702
362.565
361.416
360.255
359.083
357.9
356.704
355.498
354.28
353.05
351.809
350.557
349.293
348.018
346.731
345.434
344.124
342.804
341.472
340.128
338.773
337.406
336.028
334.639
333.237
331.824
330.399
328.963
327.514
326.054
324.581
323.097
321.6
320.091
318.57
317.037
315.491
313.933
312.362
310.779
309.183
307.574
305.952
304.317
302.669
301.008
299.333
297.646
295.945
294.23
292.502
290.76
289.004
287.234
285.45
283.652
281.84
280.013
278.172
276.316
274.446
272.561
270.66
268.745
266.815
264.869
262.908
260.932
258.94
256.932
254.908
252.868
250.813
248.741
246.652
244.547
242.426
240.288
238.133
235.961
233.771
231.565
229.341
227.1
224.841
222.565
220.27
217.958
215.627
213.279
210.912
208.527
206.124
203.702
201.263
198.805
196.33
193.837
191.327
188.801
186.26
183.704
181.137
178.561
175.981
173.401
170.837
168.292
165.831
163.435
161.359
401.65
401.653
401.651
401.646
401.636
401.621
401.599
401.571
401.535
401.49
401.436
401.37
401.293
401.202
401.096
400.975
400.837
400.681
400.506
400.311
400.095
399.857
399.597
399.313
399.005
398.673
398.317
397.936
397.53
397.1
396.645
396.165
395.66
395.132
394.58
394.005
393.406
392.786
392.143
391.478
390.793
390.087
389.361
388.616
387.852
387.069
386.268
385.45
384.614
383.762
382.893
382.009
381.109
380.193
379.263
378.318
377.359
376.386
375.4
374.399
373.386
372.359
371.32
370.268
369.203
368.126
367.037
365.935
364.822
363.697
362.559
361.41
360.25
359.078
357.894
356.699
355.492
354.274
353.044
351.803
350.551
349.288
348.012
346.726
345.428
344.119
342.799
341.466
340.123
338.768
337.401
336.023
334.634
333.232
331.819
330.394
328.958
327.509
326.049
324.576
323.092
321.595
320.087
318.566
317.032
315.486
313.928
312.357
310.774
309.178
307.569
305.947
304.312
302.664
301.003
299.329
297.641
295.94
294.225
292.497
290.755
288.999
287.229
285.445
283.647
281.835
280.008
278.167
276.312
274.441
272.556
270.656
268.741
266.81
264.865
262.904
260.927
258.935
256.927
254.904
252.864
250.808
248.736
246.648
244.543
242.422
240.283
238.128
235.956
233.767
231.561
229.337
227.096
224.837
222.56
220.266
217.953
215.623
213.274
210.908
208.523
206.119
203.698
201.258
198.801
196.325
193.832
191.322
188.796
186.254
183.699
181.131
178.554
175.972
173.391
170.822
168.274
165.782
163.341
160.956
401.552
401.556
401.557
401.555
401.549
401.538
401.522
401.499
401.469
401.431
401.383
401.325
401.254
401.17
401.072
400.957
400.825
400.675
400.506
400.316
400.104
399.87
399.613
399.332
399.027
398.697
398.342
397.962
397.557
397.127
396.672
396.192
395.687
395.158
394.605
394.029
393.429
392.807
392.163
391.497
390.811
390.104
389.377
388.63
387.864
387.08
386.278
385.459
384.622
383.769
382.899
382.014
381.113
380.197
379.266
378.32
377.361
376.387
375.4
374.399
373.385
372.358
371.318
370.266
369.201
368.124
367.034
365.932
364.819
363.693
362.556
361.407
360.246
359.074
357.89
356.695
355.488
354.27
353.04
351.799
350.547
349.283
348.008
346.721
345.424
344.114
342.794
341.462
340.118
338.763
337.397
336.019
334.629
333.228
331.815
330.39
328.953
327.505
326.044
324.572
323.087
321.591
320.082
318.561
317.028
315.482
313.924
312.353
310.77
309.173
307.564
305.943
304.308
302.66
300.999
299.325
297.637
295.936
294.221
292.493
290.751
288.995
287.225
285.441
283.643
281.831
280.004
278.163
276.308
274.437
272.552
270.652
268.737
266.806
264.861
262.9
260.923
258.931
256.924
254.9
252.86
250.804
248.732
246.644
244.539
242.418
240.28
238.125
235.953
233.763
231.557
229.333
227.092
224.833
222.556
220.262
217.95
215.619
213.271
210.904
208.519
206.115
203.694
201.254
198.796
196.321
193.828
191.317
188.791
186.248
183.692
181.123
178.545
175.96
173.375
170.798
168.239
165.709
163.215
160.72
401.402
401.408
401.413
401.416
401.416
401.412
401.404
401.39
401.369
401.341
401.304
401.256
401.196
401.123
401.035
400.931
400.809
400.668
400.507
400.325
400.12
399.892
399.641
399.364
399.063
398.736
398.384
398.005
397.602
397.172
396.717
396.236
395.731
395.201
394.647
394.069
393.468
392.844
392.198
391.531
390.843
390.134
389.404
388.656
387.889
387.103
386.299
385.478
384.64
383.785
382.914
382.027
381.125
380.208
379.276
378.329
377.368
376.394
375.406
374.404
373.39
372.362
371.321
370.268
369.203
368.125
367.035
365.933
364.819
363.693
362.555
361.406
360.245
359.072
357.888
356.692
355.485
354.267
353.037
351.796
350.544
349.28
348.005
346.718
345.42
344.111
342.79
341.458
340.115
338.76
337.393
336.015
334.625
333.224
331.811
330.386
328.949
327.501
326.04
324.568
323.083
321.587
320.078
318.557
317.024
315.478
313.92
312.349
310.766
309.169
307.56
305.939
304.304
302.656
300.995
299.321
297.633
295.932
294.217
292.489
290.747
288.991
287.221
285.437
283.639
281.827
280
278.159
276.304
274.433
272.548
270.648
268.733
266.803
264.857
262.896
260.92
258.928
256.92
254.896
252.857
250.801
248.729
246.641
244.536
242.414
240.276
238.121
235.949
233.76
231.554
229.33
227.089
224.83
222.553
220.259
217.946
215.616
213.267
210.9
208.515
206.112
203.69
201.25
198.792
196.316
193.823
191.312
188.785
186.241
183.684
181.113
178.532
175.944
173.354
170.767
168.191
165.627
163.081
160.495
401.195
401.204
401.214
401.223
401.231
401.237
401.24
401.239
401.232
401.218
401.195
401.163
401.118
401.06
400.987
400.897
400.789
400.661
400.511
400.339
400.144
399.925
399.68
399.41
399.114
398.791
398.442
398.066
397.664
397.235
396.78
396.299
395.793
395.262
394.706
394.126
393.523
392.898
392.249
391.58
390.889
390.177
389.446
388.695
387.925
387.137
386.331
385.508
384.667
383.811
382.938
382.049
381.145
380.226
379.293
378.345
377.383
376.407
375.418
374.415
373.399
372.371
371.329
370.275
369.209
368.13
367.039
365.937
364.822
363.695
362.557
361.407
360.246
359.073
357.888
356.693
355.485
354.266
353.036
351.795
350.542
349.278
348.003
346.716
345.418
344.109
342.788
341.456
340.112
338.757
337.39
336.012
334.622
333.22
331.807
330.382
328.946
327.497
326.037
324.564
323.08
321.583
320.074
318.553
317.02
315.474
313.916
312.345
310.762
309.166
307.557
305.935
304.3
302.652
300.991
299.317
297.629
295.928
294.213
292.485
290.743
288.987
287.218
285.434
283.636
281.823
279.997
278.156
276.3
274.43
272.545
270.645
268.729
266.799
264.854
262.893
260.916
258.924
256.916
254.893
252.853
250.797
248.725
246.637
244.532
242.411
240.273
238.118
235.946
233.756
231.55
229.326
227.085
224.826
222.55
220.255
217.943
215.612
213.263
210.896
208.511
206.108
203.686
201.246
198.788
196.311
193.817
191.306
188.778
186.233
183.674
181.102
178.518
175.925
173.328
170.729
168.134
165.537
162.944
160.289
400.924
400.936
400.952
400.97
400.989
401.008
401.025
401.041
401.052
401.057
401.054
401.042
401.018
400.98
400.926
400.855
400.764
400.653
400.518
400.36
400.178
399.969
399.734
399.471
399.181
398.864
398.519
398.146
397.745
397.317
396.862
396.381
395.873
395.341
394.783
394.201
393.595
392.967
392.316
391.643
390.949
390.235
389.5
388.746
387.974
387.183
386.374
385.548
384.705
383.846
382.971
382.08
381.174
380.253
379.317
378.367
377.404
376.426
375.435
374.431
373.414
372.384
371.341
370.286
369.219
368.139
367.048
365.944
364.829
363.701
362.562
361.412
360.25
359.076
357.891
356.695
355.487
354.268
353.037
351.796
350.543
349.278
348.002
346.715
345.417
344.107
342.786
341.454
340.11
338.755
337.388
336.009
334.62
333.218
331.805
330.38
328.943
327.494
326.034
324.561
323.077
321.58
320.071
318.55
317.017
315.471
313.913
312.342
310.758
309.162
307.553
305.931
304.297
302.649
300.988
299.313
297.626
295.925
294.21
292.482
290.74
288.984
287.214
285.43
283.632
281.82
279.993
278.152
276.297
274.426
272.541
270.641
268.726
266.796
264.85
262.889
260.913
258.921
256.913
254.889
252.85
250.794
248.722
246.634
244.529
242.408
240.269
238.114
235.942
233.753
231.547
229.323
227.082
224.823
222.546
220.252
217.939
215.609
213.26
210.893
208.507
206.104
203.682
201.241
198.783
196.306
193.811
191.299
188.77
186.224
183.663
181.088
178.5
175.902
173.296
170.685
168.07
165.445
162.806
160.108
400.577
400.593
400.616
400.645
400.678
400.714
400.751
400.788
400.823
400.853
400.876
400.89
400.893
400.881
400.852
400.804
400.736
400.645
400.53
400.389
400.221
400.025
399.801
399.548
399.266
398.955
398.614
398.244
397.845
397.418
396.963
396.481
395.972
395.438
394.877
394.293
393.684
393.052
392.398
391.721
391.024
390.305
389.567
388.81
388.034
387.24
386.428
385.598
384.752
383.89
383.012
382.119
381.21
380.286
379.349
378.397
377.431
376.451
375.459
374.453
373.434
372.402
371.358
370.302
369.233
368.152
367.06
365.955
364.838
363.71
362.57
361.419
360.256
359.082
357.896
356.699
355.491
354.271
353.04
351.798
350.544
349.279
348.003
346.716
345.417
344.107
342.786
341.453
340.109
338.754
337.387
336.008
334.618
333.216
331.803
330.378
328.941
327.492
326.031
324.559
323.074
321.577
320.068
318.547
317.014
315.468
313.91
312.339
310.755
309.159
307.55
305.928
304.293
302.645
300.984
299.31
297.622
295.921
294.207
292.478
290.736
288.98
287.211
285.427
283.629
281.817
279.99
278.149
276.293
274.423
272.538
270.638
268.723
266.792
264.847
262.886
260.91
258.918
256.91
254.886
252.846
250.791
248.719
246.631
244.526
242.404
240.266
238.111
235.939
233.75
231.544
229.32
227.078
224.82
222.543
220.248
217.936
215.605
213.256
210.889
208.504
206.1
203.677
201.237
198.778
196.3
193.805
191.292
188.761
186.214
183.65
181.072
178.48
175.876
173.261
170.637
168.003
165.351
162.676
159.941
400.139
400.16
400.193
400.235
400.286
400.343
400.406
400.471
400.536
400.599
400.655
400.703
400.739
400.759
400.762
400.745
400.704
400.638
400.546
400.426
400.276
400.096
399.885
399.643
399.369
399.065
398.729
398.362
397.966
397.539
397.084
396.601
396.09
395.553
394.989
394.401
393.789
393.153
392.494
391.813
391.112
390.389
389.647
388.886
388.105
387.307
386.491
385.658
384.809
383.943
383.062
382.165
381.254
380.327
379.387
378.432
377.464
376.482
375.488
374.48
373.459
372.426
371.38
370.322
369.251
368.169
367.075
365.969
364.851
363.722
362.581
361.429
360.265
359.09
357.903
356.705
355.496
354.276
353.044
351.802
350.548
349.282
348.006
346.718
345.419
344.108
342.787
341.454
340.109
338.753
337.386
336.007
334.617
333.215
331.801
330.376
328.939
327.49
326.029
324.557
323.072
321.575
320.066
318.545
317.011
315.465
313.907
312.336
310.752
309.156
307.547
305.925
304.29
302.642
300.981
299.307
297.619
295.918
294.203
292.475
290.733
288.977
287.207
285.424
283.626
281.813
279.987
278.146
276.29
274.42
272.535
270.634
268.719
266.789
264.844
262.883
260.906
258.914
256.907
254.883
252.843
250.788
248.716
246.627
244.523
242.401
240.263
238.108
235.936
233.747
231.54
229.317
227.075
224.816
222.54
220.245
217.932
215.602
213.253
210.885
208.5
206.096
203.673
201.232
198.772
196.294
193.798
191.284
188.752
186.203
183.637
181.055
178.458
175.848
173.224
170.586
167.934
165.258
162.552
159.787
399.592
399.619
399.662
399.721
399.794
399.879
399.974
400.076
400.18
400.284
400.383
400.474
400.552
400.613
400.655
400.674
400.667
400.633
400.568
400.472
400.344
400.182
399.986
399.756
399.492
399.195
398.864
398.501
398.106
397.68
397.224
396.739
396.226
395.685
395.118
394.526
393.909
393.268
392.605
391.919
391.213
390.486
389.739
388.972
388.188
387.385
386.565
385.728
384.874
384.005
383.12
382.22
381.305
380.375
379.432
378.474
377.503
376.519
375.522
374.511
373.488
372.453
371.405
370.345
369.273
368.189
367.094
365.986
364.867
363.737
362.594
361.441
360.276
359.1
357.913
356.714
355.504
354.283
353.05
351.807
350.552
349.286
348.009
346.721
345.421
344.111
342.788
341.455
340.11
338.754
337.386
336.007
334.617
333.215
331.801
330.375
328.938
327.489
326.028
324.555
323.07
321.573
320.064
318.543
317.009
315.463
313.905
312.333
310.75
309.154
307.545
305.923
304.288
302.64
300.978
299.304
297.616
295.915
294.201
292.472
290.73
288.974
287.204
285.421
283.623
281.81
279.984
278.143
276.287
274.417
272.531
270.631
268.716
266.786
264.841
262.88
260.903
258.911
256.903
254.88
252.84
250.784
248.713
246.624
244.52
242.398
240.26
238.105
235.933
233.744
231.537
229.313
227.072
224.813
222.536
220.242
217.929
215.598
213.249
210.882
208.496
206.091
203.668
201.227
198.767
196.288
193.791
191.276
188.742
186.191
183.622
181.037
178.435
175.818
173.185
170.535
167.865
165.168
162.435
159.645
398.907
398.94
398.997
399.077
399.179
399.299
399.435
399.583
399.738
399.894
400.048
400.193
400.324
400.437
400.527
400.591
400.625
400.628
400.596
400.529
400.425
400.284
400.105
399.889
399.635
399.346
399.02
398.661
398.267
397.841
397.384
396.896
396.38
395.835
395.264
394.666
394.044
393.398
392.729
392.039
391.326
390.594
389.841
389.07
388.28
387.473
386.648
385.806
384.948
384.074
383.185
382.281
381.363
380.43
379.483
378.522
377.548
376.561
375.561
374.548
373.523
372.485
371.435
370.373
369.299
368.213
367.116
366.007
364.886
363.754
362.61
361.456
360.29
359.112
357.924
356.724
355.513
354.291
353.058
351.814
350.558
349.292
348.014
346.725
345.425
344.114
342.791
341.457
340.112
338.756
337.388
336.008
334.617
333.215
331.801
330.375
328.937
327.488
326.027
324.554
323.069
321.572
320.062
318.541
317.007
315.461
313.902
312.331
310.748
309.151
307.542
305.92
304.285
302.637
300.976
299.301
297.614
295.912
294.198
292.469
290.727
288.971
287.202
285.418
283.62
281.807
279.981
278.14
276.284
274.414
272.528
270.628
268.713
266.783
264.838
262.877
260.9
258.908
256.9
254.877
252.837
250.782
248.71
246.621
244.517
242.395
240.257
238.102
235.93
233.741
231.534
229.31
227.069
224.81
222.533
220.238
217.926
215.595
213.246
210.878
208.492
206.087
203.664
201.222
198.761
196.282
193.784
191.267
188.732
186.178
183.607
181.018
178.411
175.787
173.144
170.482
167.796
165.08
162.326
159.514
398.044
398.085
398.16
398.267
398.404
398.57
398.759
398.966
399.185
399.409
399.631
399.845
400.043
400.221
400.371
400.491
400.576
400.623
400.63
400.597
400.521
400.403
400.243
400.042
399.8
399.518
399.198
398.841
398.449
398.022
397.562
397.072
396.551
396.002
395.425
394.822
394.194
393.542
392.867
392.17
391.452
390.713
389.955
389.178
388.382
387.569
386.739
385.892
385.03
384.151
383.258
382.349
381.427
380.49
379.539
378.575
377.598
376.608
375.605
374.589
373.561
372.521
371.468
370.404
369.328
368.24
367.141
366.03
364.907
363.774
362.629
361.473
360.305
359.127
357.937
356.736
355.524
354.301
353.067
351.822
350.566
349.299
348.02
346.731
345.43
344.118
342.795
341.46
340.115
338.758
337.389
336.01
334.618
333.215
331.801
330.375
328.937
327.488
326.026
324.553
323.068
321.571
320.061
318.54
317.006
315.459
313.901
312.329
310.746
309.149
307.54
305.918
304.283
302.635
300.973
299.299
297.611
295.91
294.195
292.467
290.725
288.969
287.199
285.415
283.617
281.805
279.978
278.137
276.281
274.411
272.526
270.626
268.71
266.78
264.835
262.874
260.897
258.905
256.898
254.874
252.834
250.779
248.707
246.618
244.514
242.392
240.254
238.099
235.927
233.738
231.531
229.307
227.066
224.807
222.53
220.235
217.922
215.591
213.242
210.874
208.488
206.083
203.659
201.217
198.755
196.275
193.776
191.258
188.721
186.165
183.591
180.998
178.386
175.755
173.104
170.43
167.73
164.997
162.223
159.394
396.953
397.006
397.101
397.239
397.421
397.642
397.897
398.181
398.482
398.794
399.105
399.407
399.692
399.95
400.177
400.366
400.512
400.614
400.668
400.674
400.631
400.54
400.401
400.216
399.985
399.712
399.397
399.042
398.65
398.222
397.759
397.264
396.739
396.184
395.601
394.991
394.357
393.698
393.016
392.313
391.588
390.843
390.078
389.294
388.493
387.674
386.838
385.986
385.118
384.235
383.337
382.424
381.497
380.556
379.602
378.634
377.653
376.659
375.653
374.634
373.603
372.56
371.505
370.438
369.36
368.27
367.169
366.056
364.932
363.796
362.65
361.492
360.323
359.143
357.952
356.75
355.537
354.313
353.078
351.832
350.575
349.307
348.027
346.737
345.436
344.123
342.799
341.464
340.118
338.761
337.392
336.012
334.62
333.217
331.802
330.376
328.938
327.488
326.026
324.553
323.067
321.57
320.06
318.538
317.004
315.458
313.899
312.328
310.744
309.147
307.538
305.916
304.281
302.632
300.971
299.297
297.609
295.907
294.193
292.464
290.722
288.966
287.196
285.412
283.614
281.802
279.975
278.134
276.278
274.408
272.523
270.623
268.708
266.778
264.832
262.871
260.895
258.903
256.895
254.871
252.832
250.776
248.704
246.616
244.511
242.389
240.251
238.096
235.924
233.735
231.528
229.305
227.063
224.804
222.527
220.232
217.919
215.588
213.238
210.871
208.484
206.079
203.655
201.212
198.75
196.269
193.768
191.249
188.71
186.152
183.575
180.978
178.361
175.723
173.063
170.379
167.666
164.918
162.127
159.282
395.53
395.597
395.719
395.898
396.133
396.423
396.764
397.146
397.557
397.984
398.413
398.833
399.23
399.596
399.92
400.197
400.422
400.591
400.703
400.757
400.753
400.692
400.577
400.409
400.191
399.926
399.616
399.263
398.87
398.439
397.973
397.473
396.941
396.38
395.79
395.174
394.532
393.866
393.177
392.466
391.734
390.981
390.21
389.42
388.612
387.787
386.945
386.087
385.214
384.325
383.422
382.504
381.573
380.627
379.669
378.697
377.712
376.715
375.705
374.683
373.649
372.603
371.545
370.476
369.395
368.303
367.199
366.084
364.958
363.821
362.673
361.513
360.343
359.161
357.969
356.766
355.551
354.326
353.09
351.843
350.585
349.316
348.036
346.745
345.443
344.129
342.805
341.469
340.123
338.765
337.395
336.015
334.622
333.219
331.804
330.377
328.939
327.489
326.027
324.553
323.067
321.569
320.06
318.538
317.003
315.457
313.898
312.327
310.742
309.146
307.536
305.914
304.279
302.63
300.969
299.294
297.607
295.905
294.19
292.462
290.72
288.964
287.194
285.41
283.612
281.799
279.973
278.132
276.276
274.406
272.52
270.62
268.705
266.775
264.829
262.868
260.892
258.9
256.892
254.869
252.829
250.773
248.701
246.613
244.508
242.387
240.249
238.094
235.922
233.732
231.526
229.302
227.06
224.801
222.524
220.229
217.916
215.585
213.235
210.867
208.48
206.074
203.65
201.206
198.744
196.262
193.761
191.24
188.699
186.139
183.559
180.958
178.336
175.692
173.024
170.33
167.604
164.843
162.038
159.18
393.691
393.776
393.923
394.138
394.427
394.792
395.226
395.726
396.275
396.858
397.446
398.03
398.584
399.099
399.559
399.956
400.285
400.542
400.726
400.839
400.881
400.856
400.768
400.62
400.415
400.158
399.852
399.5
399.106
398.672
398.201
397.695
397.157
396.589
395.991
395.367
394.717
394.043
393.347
392.628
391.888
391.128
390.35
389.553
388.738
387.906
387.058
386.194
385.315
384.421
383.513
382.59
381.653
380.703
379.74
378.764
377.776
376.775
375.761
374.736
373.698
372.649
371.589
370.517
369.433
368.338
367.232
366.115
364.987
363.848
362.697
361.536
360.364
359.181
357.987
356.783
355.567
354.341
353.103
351.855
350.596
349.326
348.045
346.753
345.45
344.136
342.811
341.475
340.128
338.769
337.399
336.018
334.625
333.221
331.806
330.379
328.94
327.49
326.027
324.553
323.067
321.569
320.059
318.537
317.003
315.456
313.897
312.325
310.741
309.144
307.535
305.912
304.277
302.629
300.967
299.293
297.605
295.903
294.188
292.46
290.718
288.962
287.192
285.408
283.61
281.797
279.97
278.129
276.273
274.403
272.518
270.618
268.703
266.772
264.827
262.866
260.89
258.898
256.89
254.866
252.827
250.771
248.699
246.61
244.506
242.384
240.246
238.091
235.919
233.73
231.523
229.299
227.057
224.798
222.521
220.226
217.913
215.582
213.232
210.863
208.476
206.07
203.645
201.201
198.738
196.255
193.753
191.231
188.688
186.126
183.542
180.938
178.311
175.661
172.985
170.282
167.546
164.773
161.956
159.085
391.067
391.161
391.319
391.549
391.881
392.324
392.879
393.545
394.305
395.127
395.972
396.821
397.624
398.372
399.035
399.607
400.08
400.455
400.732
400.918
401.016
401.033
400.975
400.847
400.656
400.407
400.105
399.754
399.357
398.919
398.442
397.93
397.385
396.808
396.203
395.57
394.912
394.23
393.525
392.798
392.05
391.283
390.496
389.692
388.87
388.032
387.177
386.307
385.422
384.522
383.608
382.68
381.738
380.784
379.816
378.836
377.843
376.838
375.821
374.792
373.751
372.699
371.635
370.56
369.474
368.376
367.268
366.148
365.018
363.876
362.724
361.561
360.387
359.203
358.007
356.801
355.584
354.356
353.118
351.869
350.608
349.337
348.055
346.763
345.459
344.144
342.818
341.481
340.133
338.774
337.404
336.022
334.629
333.225
331.809
330.381
328.942
327.491
326.029
324.554
323.068
321.57
320.06
318.537
317.003
315.456
313.896
312.325
310.74
309.143
307.534
305.911
304.276
302.627
300.966
299.291
297.603
295.901
294.186
292.458
290.716
288.959
287.189
285.405
283.607
281.795
279.968
278.127
276.271
274.401
272.516
270.615
268.7
266.77
264.824
262.864
260.887
258.895
256.887
254.864
252.824
250.768
248.696
246.608
244.503
242.382
240.244
238.089
235.916
233.727
231.52
229.296
227.055
224.795
222.518
220.223
217.91
215.578
213.228
210.86
208.472
206.066
203.641
201.196
198.732
196.249
193.745
191.222
188.677
186.113
183.526
180.918
178.287
175.631
172.948
170.237
167.491
164.708
161.879
158.998
387.551
387.637
387.707
387.823
388.05
388.456
389.065
389.911
390.989
392.243
393.574
394.911
396.149
397.283
398.268
399.102
399.784
400.318
400.719
400.996
401.16
401.225
401.2
401.094
400.917
400.675
400.375
400.023
399.622
399.179
398.696
398.176
397.622
397.038
396.423
395.782
395.115
394.424
393.71
392.975
392.219
391.443
390.649
389.837
389.008
388.163
387.301
386.425
385.533
384.628
383.708
382.774
381.827
380.868
379.895
378.91
377.913
376.904
375.883
374.85
373.806
372.751
371.684
370.606
369.516
368.416
367.305
366.183
365.051
363.907
362.753
361.588
360.412
359.226
358.029
356.821
355.602
354.373
353.134
351.883
350.622
349.35
348.067
346.773
345.468
344.153
342.826
341.488
340.14
338.78
337.409
336.027
334.633
333.228
331.812
330.384
328.944
327.493
326.03
324.556
323.069
321.571
320.06
318.537
317.003
315.455
313.896
312.324
310.739
309.142
307.533
305.91
304.275
302.626
300.964
299.289
297.601
295.9
294.185
292.456
290.714
288.958
287.188
285.403
283.605
281.793
279.966
278.125
276.269
274.399
272.513
270.613
268.698
266.768
264.822
262.861
260.885
258.893
256.885
254.862
252.822
250.766
248.694
246.606
244.501
242.379
240.241
238.086
235.914
233.725
231.518
229.294
227.052
224.793
222.516
220.22
217.907
215.575
213.225
210.856
208.469
206.062
203.636
201.191
198.727
196.242
193.738
191.213
188.667
186.1
183.511
180.899
178.263
175.602
172.913
170.194
167.44
164.647
161.809
158.919
382.123
382.02
381.748
381.382
381.068
381.033
381.542
382.785
384.637
386.873
389.233
391.538
393.623
395.462
397.016
398.294
399.308
400.084
400.658
401.055
401.302
401.422
401.434
401.352
401.189
400.954
400.656
400.302
399.898
399.449
398.958
398.431
397.869
397.275
396.652
396.001
395.325
394.625
393.902
393.158
392.393
391.609
390.807
389.988
389.151
388.298
387.43
386.547
385.649
384.737
383.811
382.872
381.92
380.955
379.978
378.988
377.987
376.973
375.948
374.912
373.864
372.805
371.735
370.653
369.561
368.458
367.345
366.22
365.085
363.939
362.783
361.616
360.438
359.25
358.051
356.842
355.622
354.391
353.15
351.898
350.636
349.363
348.079
346.784
345.478
344.162
342.834
341.496
340.146
338.786
337.414
336.032
334.638
333.232
331.815
330.387
328.947
327.495
326.032
324.557
323.07
321.571
320.061
318.538
317.003
315.455
313.896
312.324
310.739
309.142
307.532
305.909
304.273
302.625
300.963
299.288
297.6
295.898
294.183
292.454
290.712
288.956
287.186
285.402
283.603
281.791
279.964
278.123
276.267
274.397
272.511
270.611
268.696
266.766
264.82
262.859
260.883
258.891
256.883
254.859
252.82
250.764
248.692
246.603
244.499
242.377
240.239
238.084
235.912
233.722
231.516
229.291
227.05
224.79
222.513
220.218
217.904
215.572
213.222
210.853
208.465
206.058
203.632
201.187
198.721
196.236
193.73
191.204
188.657
186.088
183.496
180.881
178.241
175.575
172.881
170.154
167.393
164.592
161.745
158.847
374.301
373.958
372.785
370.927
368.754
367.051
366.919
368.6
371.741
375.908
380.473
384.963
388.945
392.26
394.91
396.968
398.515
399.661
400.478
401.036
401.389
401.579
401.637
401.585
401.441
401.217
400.924
400.572
400.166
399.712
399.216
398.682
398.113
397.511
396.879
396.22
395.535
394.827
394.095
393.342
392.57
391.778
390.968
390.141
389.297
388.437
387.562
386.672
385.767
384.849
383.918
382.973
382.015
381.045
380.063
379.069
378.062
377.045
376.016
374.975
373.924
372.861
371.787
370.703
369.608
368.502
367.385
366.258
365.121
363.973
362.814
361.645
360.465
359.275
358.075
356.864
355.642
354.41
353.168
351.915
350.651
349.377
348.092
346.796
345.489
344.172
342.843
341.504
340.154
338.793
337.421
336.037