/*--------------------------------*- C++ -*----------------------------------*\
| =========                 |                                                 |
| \\      /  F ield         | OpenFOAM: The Open Source CFD Toolbox           |
|  \\    /   O peration     | Version:  2.1.x                                 |
|   \\  /    A nd           | Web:      www.OpenFOAM.org                      |
|    \\/     M anipulation  |                                                 |
\*---------------------------------------------------------------------------*/
FoamFile
{
    version     2.0;
    format      ascii;
    class       volScalarField;
    location    "0.002";
    object      pPrime2Mean;
}
// * * * * * * * * * * * * * * * * * * * * * * * * * * * * * * * * * * * * * //

dimensions      [0 4 -4 0 0 0 0];

internalField   nonuniform List<scalar> 
12225
(
2.01116e+08
1.97909e+08
1.946e+08
1.91409e+08
1.88342e+08
1.85392e+08
1.82551e+08
1.79811e+08
1.77162e+08
1.74594e+08
1.72099e+08
1.69662e+08
1.6727e+08
1.64905e+08
1.62543e+08
1.60145e+08
1.57641e+08
1.54867e+08
2.0112e+08
1.97911e+08
1.94601e+08
1.9141e+08
1.88343e+08
1.85394e+08
1.82553e+08
1.79814e+08
1.77165e+08
1.74599e+08
1.72104e+08
1.69669e+08
1.67279e+08
1.64919e+08
1.62563e+08
1.60177e+08
1.57703e+08
1.55005e+08
2.01124e+08
1.97914e+08
1.94604e+08
1.91413e+08
1.88347e+08
1.85398e+08
1.82559e+08
1.7982e+08
1.77173e+08
1.74609e+08
1.72117e+08
1.69685e+08
1.67301e+08
1.64949e+08
1.62608e+08
1.60248e+08
1.57828e+08
1.55297e+08
2.01132e+08
1.97919e+08
1.94609e+08
1.91419e+08
1.88354e+08
1.85406e+08
1.82568e+08
1.79832e+08
1.77187e+08
1.74626e+08
1.72139e+08
1.69714e+08
1.67339e+08
1.65001e+08
1.62682e+08
1.60362e+08
1.58021e+08
1.5566e+08
2.01141e+08
1.97928e+08
1.94617e+08
1.91428e+08
1.88364e+08
1.85418e+08
1.82582e+08
1.79849e+08
1.77209e+08
1.74653e+08
1.72172e+08
1.69757e+08
1.67396e+08
1.65078e+08
1.6279e+08
1.60522e+08
1.58271e+08
1.56064e+08
2.01158e+08
1.97941e+08
1.9463e+08
1.91441e+08
1.88379e+08
1.85435e+08
1.82603e+08
1.79874e+08
1.77239e+08
1.7469e+08
1.7222e+08
1.69817e+08
1.67475e+08
1.65183e+08
1.62935e+08
1.60727e+08
1.58568e+08
1.56493e+08
2.01185e+08
1.97959e+08
1.94647e+08
1.91459e+08
1.884e+08
1.85459e+08
1.82632e+08
1.79908e+08
1.77281e+08
1.74742e+08
1.72284e+08
1.69899e+08
1.67579e+08
1.6532e+08
1.63118e+08
1.60975e+08
1.58905e+08
1.56939e+08
2.01208e+08
1.97979e+08
1.94666e+08
1.9148e+08
1.88423e+08
1.85487e+08
1.82664e+08
1.79947e+08
1.77328e+08
1.74799e+08
1.72355e+08
1.69988e+08
1.67692e+08
1.65465e+08
1.63305e+08
1.61217e+08
1.59216e+08
1.57327e+08
2.01232e+08
1.97999e+08
1.94686e+08
1.91502e+08
1.88448e+08
1.85516e+08
1.82698e+08
1.79988e+08
1.77377e+08
1.7486e+08
1.72429e+08
1.7008e+08
1.67808e+08
1.65611e+08
1.63489e+08
1.6145e+08
1.59506e+08
1.57676e+08
2.01254e+08
1.98024e+08
1.94713e+08
1.91532e+08
1.88481e+08
1.85554e+08
1.82743e+08
1.80041e+08
1.77442e+08
1.74938e+08
1.72525e+08
1.70198e+08
1.67953e+08
1.6579e+08
1.63711e+08
1.61722e+08
1.59834e+08
1.5806e+08
2.01282e+08
1.98056e+08
1.94748e+08
1.9157e+08
1.88525e+08
1.85605e+08
1.82802e+08
1.80111e+08
1.77525e+08
1.75038e+08
1.72646e+08
1.70344e+08
1.68131e+08
1.66007e+08
1.63973e+08
1.62035e+08
1.60201e+08
1.58478e+08
2.01309e+08
1.98097e+08
1.94793e+08
1.91621e+08
1.88582e+08
1.8567e+08
1.82878e+08
1.80201e+08
1.77631e+08
1.75165e+08
1.72797e+08
1.70525e+08
1.68347e+08
1.66264e+08
1.64276e+08
1.62389e+08
1.60606e+08
1.58931e+08
2.01363e+08
1.98153e+08
1.94853e+08
1.91686e+08
1.88655e+08
1.85754e+08
1.82976e+08
1.80314e+08
1.77765e+08
1.75322e+08
1.72983e+08
1.70744e+08
1.68605e+08
1.66564e+08
1.64623e+08
1.62784e+08
1.61048e+08
1.59417e+08
2.01448e+08
1.98228e+08
1.9493e+08
1.9177e+08
1.88749e+08
1.8586e+08
1.83098e+08
1.80456e+08
1.7793e+08
1.75515e+08
1.73207e+08
1.71004e+08
1.68904e+08
1.66906e+08
1.65011e+08
1.63217e+08
1.61525e+08
1.59933e+08
2.01539e+08
1.98322e+08
1.95028e+08
1.91876e+08
1.88866e+08
1.85993e+08
1.8325e+08
1.8063e+08
1.7813e+08
1.75745e+08
1.73471e+08
1.71305e+08
1.69245e+08
1.6729e+08
1.65437e+08
1.63685e+08
1.62032e+08
1.60476e+08
2.0166e+08
1.98438e+08
1.95149e+08
1.92006e+08
1.8901e+08
1.86154e+08
1.83432e+08
1.80837e+08
1.78366e+08
1.76012e+08
1.73773e+08
1.71644e+08
1.69623e+08
1.67707e+08
1.65894e+08
1.6418e+08
1.62562e+08
1.61037e+08
2.01791e+08
1.98575e+08
1.95293e+08
1.92162e+08
1.89181e+08
1.86345e+08
1.83645e+08
1.81076e+08
1.78634e+08
1.76312e+08
1.74107e+08
1.72014e+08
1.7003e+08
1.68151e+08
1.66372e+08
1.64692e+08
1.63104e+08
1.61606e+08
2.01928e+08
1.98719e+08
1.95447e+08
1.92327e+08
1.89362e+08
1.86544e+08
1.83866e+08
1.81322e+08
1.78906e+08
1.76613e+08
1.74437e+08
1.72375e+08
1.70421e+08
1.68571e+08
1.66822e+08
1.65167e+08
1.63604e+08
1.62127e+08
2.02056e+08
1.9885e+08
1.95585e+08
1.92476e+08
1.89523e+08
1.8672e+08
1.84059e+08
1.81534e+08
1.79138e+08
1.76867e+08
1.74714e+08
1.72674e+08
1.70742e+08
1.68914e+08
1.67184e+08
1.65549e+08
1.64002e+08
1.6254e+08
2.0216e+08
1.98959e+08
1.95699e+08
1.92596e+08
1.89653e+08
1.86861e+08
1.84212e+08
1.81701e+08
1.79321e+08
1.77065e+08
1.74927e+08
1.72903e+08
1.70987e+08
1.69174e+08
1.67458e+08
1.65835e+08
1.643e+08
1.62848e+08
2.0225e+08
1.99049e+08
1.95791e+08
1.92693e+08
1.89755e+08
1.86971e+08
1.84332e+08
1.81831e+08
1.79461e+08
1.77217e+08
1.75091e+08
1.73078e+08
1.71172e+08
1.69369e+08
1.67663e+08
1.66049e+08
1.64522e+08
1.63077e+08
2.02322e+08
1.99119e+08
1.95862e+08
1.92767e+08
1.89835e+08
1.87056e+08
1.84424e+08
1.8193e+08
1.79568e+08
1.77332e+08
1.75214e+08
1.73209e+08
1.71311e+08
1.69515e+08
1.67816e+08
1.66208e+08
1.64686e+08
1.63246e+08
2.02378e+08
1.99174e+08
1.95917e+08
1.92825e+08
1.89895e+08
1.87121e+08
1.84493e+08
1.82005e+08
1.79648e+08
1.77417e+08
1.75305e+08
1.73306e+08
1.71414e+08
1.69623e+08
1.67929e+08
1.66325e+08
1.64807e+08
1.63371e+08
2.02424e+08
1.99216e+08
1.95959e+08
1.92867e+08
1.8994e+08
1.87169e+08
1.84544e+08
1.8206e+08
1.79707e+08
1.7748e+08
1.75372e+08
1.73377e+08
1.71489e+08
1.69702e+08
1.68011e+08
1.6641e+08
1.64895e+08
1.63461e+08
2.02456e+08
1.99245e+08
1.95989e+08
1.92898e+08
1.89973e+08
1.87203e+08
1.84581e+08
1.82099e+08
1.7975e+08
1.77526e+08
1.7542e+08
1.73428e+08
1.71542e+08
1.69758e+08
1.68069e+08
1.66471e+08
1.64958e+08
1.63526e+08
2.02475e+08
1.99265e+08
1.96009e+08
1.9292e+08
1.89996e+08
1.87228e+08
1.84607e+08
1.82127e+08
1.79779e+08
1.77557e+08
1.75454e+08
1.73464e+08
1.7158e+08
1.69797e+08
1.6811e+08
1.66513e+08
1.65002e+08
1.6357e+08
2.02482e+08
1.99278e+08
1.96024e+08
1.92935e+08
1.90011e+08
1.87244e+08
1.84625e+08
1.82146e+08
1.79799e+08
1.77578e+08
1.75477e+08
1.73487e+08
1.71605e+08
1.69823e+08
1.68137e+08
1.66541e+08
1.65031e+08
1.636e+08
2.02489e+08
1.99286e+08
1.96033e+08
1.92944e+08
1.90021e+08
1.87255e+08
1.84636e+08
1.82158e+08
1.79812e+08
1.77592e+08
1.75491e+08
1.73502e+08
1.71621e+08
1.6984e+08
1.68154e+08
1.66559e+08
1.65049e+08
1.63619e+08
2.02491e+08
1.9929e+08
1.96038e+08
1.9295e+08
1.90027e+08
1.87261e+08
1.84642e+08
1.82164e+08
1.79819e+08
1.77599e+08
1.75499e+08
1.73511e+08
1.71629e+08
1.69849e+08
1.68164e+08
1.66569e+08
1.65059e+08
1.6363e+08
2.0249e+08
1.99291e+08
1.9604e+08
1.92952e+08
1.90029e+08
1.87263e+08
1.84645e+08
1.82167e+08
1.79822e+08
1.77602e+08
1.75502e+08
1.73514e+08
1.71633e+08
1.69853e+08
1.68168e+08
1.66573e+08
1.65064e+08
1.63634e+08
1.30822e+08
1.30812e+08
1.30791e+08
1.30759e+08
1.30716e+08
1.30662e+08
1.30596e+08
1.30519e+08
1.3043e+08
1.30329e+08
1.30217e+08
1.30092e+08
1.29955e+08
1.29805e+08
1.29643e+08
1.29469e+08
1.29283e+08
1.29083e+08
1.28872e+08
1.28648e+08
1.28412e+08
1.28163e+08
1.27902e+08
1.27629e+08
1.27344e+08
1.27046e+08
1.26737e+08
1.26416e+08
1.26083e+08
1.25738e+08
1.25382e+08
1.25015e+08
1.24636e+08
1.24247e+08
1.23846e+08
1.23435e+08
1.23014e+08
1.22582e+08
1.22139e+08
1.21687e+08
1.21225e+08
1.20753e+08
1.20271e+08
1.19781e+08
1.19281e+08
1.18772e+08
1.18254e+08
1.17727e+08
1.17192e+08
1.16649e+08
1.16097e+08
1.15538e+08
1.1497e+08
1.14395e+08
1.13812e+08
1.13222e+08
1.12625e+08
1.1202e+08
1.11409e+08
1.1079e+08
1.10165e+08
1.09534e+08
1.08896e+08
1.08252e+08
1.07601e+08
1.06945e+08
1.06283e+08
1.05615e+08
1.04941e+08
1.04262e+08
1.03577e+08
1.02887e+08
1.02192e+08
1.01492e+08
1.00786e+08
1.00076e+08
9.93614e+07
9.86418e+07
9.79175e+07
9.71888e+07
9.64557e+07
9.57183e+07
9.49766e+07
9.42308e+07
9.3481e+07
9.27272e+07
9.19696e+07
9.12081e+07
9.0443e+07
8.96742e+07
8.89018e+07
8.8126e+07
8.73468e+07
8.65643e+07
8.57786e+07
8.49897e+07
8.41977e+07
8.34027e+07
8.26048e+07
8.1804e+07
8.10005e+07
8.01942e+07
7.93853e+07
7.85738e+07
7.77599e+07
7.69435e+07
7.61248e+07
7.53039e+07
7.44808e+07
7.36555e+07
7.28282e+07
7.1999e+07
7.11679e+07
7.0335e+07
6.95003e+07
6.86641e+07
6.78262e+07
6.69869e+07
6.61462e+07
6.53042e+07
6.4461e+07
6.36166e+07
6.27712e+07
6.19248e+07
6.10776e+07
6.02296e+07
5.93809e+07
5.85316e+07
5.76818e+07
5.68317e+07
5.59813e+07
5.51307e+07
5.428e+07
5.34293e+07
5.25788e+07
5.17285e+07
5.08786e+07
5.00292e+07
4.91803e+07
4.83322e+07
4.7485e+07
4.66386e+07
4.57934e+07
4.49495e+07
4.41068e+07
4.32657e+07
4.24263e+07
4.15886e+07
4.07528e+07
3.99191e+07
3.90877e+07
3.82586e+07
3.74321e+07
3.66082e+07
3.57873e+07
3.49694e+07
3.41547e+07
3.33434e+07
3.25357e+07
3.17317e+07
3.09317e+07
3.01359e+07
2.93444e+07
2.85575e+07
2.77754e+07
2.69984e+07
2.62266e+07
2.54603e+07
2.46998e+07
2.39455e+07
2.31975e+07
2.24563e+07
2.17222e+07
2.09958e+07
2.02775e+07
1.95682e+07
1.88687e+07
1.81804e+07
1.75059e+07
1.68502e+07
1.3087e+08
1.3086e+08
1.30838e+08
1.30806e+08
1.30763e+08
1.30709e+08
1.30643e+08
1.30565e+08
1.30476e+08
1.30374e+08
1.30261e+08
1.30135e+08
1.29997e+08
1.29847e+08
1.29684e+08
1.29509e+08
1.29322e+08
1.29122e+08
1.28909e+08
1.28685e+08
1.28447e+08
1.28198e+08
1.27936e+08
1.27661e+08
1.27375e+08
1.27077e+08
1.26766e+08
1.26444e+08
1.2611e+08
1.25765e+08
1.25408e+08
1.25039e+08
1.2466e+08
1.24269e+08
1.23868e+08
1.23456e+08
1.23033e+08
1.22601e+08
1.22157e+08
1.21704e+08
1.21241e+08
1.20769e+08
1.20287e+08
1.19795e+08
1.19294e+08
1.18785e+08
1.18266e+08
1.17739e+08
1.17203e+08
1.1666e+08
1.16107e+08
1.15547e+08
1.14979e+08
1.14404e+08
1.1382e+08
1.1323e+08
1.12632e+08
1.12027e+08
1.11415e+08
1.10797e+08
1.10171e+08
1.09539e+08
1.08901e+08
1.08257e+08
1.07606e+08
1.06949e+08
1.06287e+08
1.05619e+08
1.04945e+08
1.04265e+08
1.0358e+08
1.0289e+08
1.02195e+08
1.01494e+08
1.00789e+08
1.00079e+08
9.93636e+07
9.86439e+07
9.79195e+07
9.71907e+07
9.64574e+07
9.57199e+07
9.49781e+07
9.42322e+07
9.34823e+07
9.27285e+07
9.19707e+07
9.12092e+07
9.04439e+07
8.96751e+07
8.89027e+07
8.81268e+07
8.73476e+07
8.6565e+07
8.57792e+07
8.49903e+07
8.41983e+07
8.34032e+07
8.26053e+07
8.18045e+07
8.10009e+07
8.01946e+07
7.93857e+07
7.85742e+07
7.77602e+07
7.69438e+07
7.61251e+07
7.53041e+07
7.4481e+07
7.36557e+07
7.28284e+07
7.19992e+07
7.1168e+07
7.03351e+07
6.95005e+07
6.86642e+07
6.78263e+07
6.6987e+07
6.61463e+07
6.53043e+07
6.44611e+07
6.36167e+07
6.27713e+07
6.19249e+07
6.10776e+07
6.02296e+07
5.93809e+07
5.85317e+07
5.76819e+07
5.68317e+07
5.59813e+07
5.51307e+07
5.428e+07
5.34293e+07
5.25788e+07
5.17285e+07
5.08786e+07
5.00292e+07
4.91803e+07
4.83322e+07
4.7485e+07
4.66387e+07
4.57935e+07
4.49495e+07
4.41069e+07
4.32657e+07
4.24263e+07
4.15886e+07
4.07528e+07
3.99191e+07
3.90877e+07
3.82586e+07
3.74321e+07
3.66082e+07
3.57873e+07
3.49694e+07
3.41547e+07
3.33434e+07
3.25357e+07
3.17317e+07
3.09317e+07
3.01359e+07
2.93444e+07
2.85575e+07
2.77754e+07
2.69983e+07
2.62265e+07
2.54603e+07
2.46998e+07
2.39454e+07
2.31974e+07
2.24561e+07
2.1722e+07
2.09955e+07
2.02771e+07
1.95676e+07
1.88679e+07
1.81792e+07
1.75036e+07
1.68449e+07
1.30966e+08
1.30955e+08
1.30934e+08
1.30901e+08
1.30857e+08
1.30802e+08
1.30735e+08
1.30657e+08
1.30566e+08
1.30464e+08
1.30349e+08
1.30222e+08
1.30083e+08
1.29931e+08
1.29767e+08
1.2959e+08
1.29401e+08
1.29199e+08
1.28984e+08
1.28758e+08
1.28518e+08
1.28267e+08
1.28003e+08
1.27726e+08
1.27438e+08
1.27138e+08
1.26825e+08
1.26501e+08
1.26165e+08
1.25817e+08
1.25458e+08
1.25088e+08
1.24707e+08
1.24314e+08
1.23911e+08
1.23497e+08
1.23073e+08
1.22639e+08
1.22194e+08
1.21739e+08
1.21275e+08
1.208e+08
1.20317e+08
1.19824e+08
1.19322e+08
1.18811e+08
1.18291e+08
1.17763e+08
1.17226e+08
1.16681e+08
1.16128e+08
1.15566e+08
1.14998e+08
1.14421e+08
1.13837e+08
1.13245e+08
1.12647e+08
1.12041e+08
1.11428e+08
1.10809e+08
1.10183e+08
1.09551e+08
1.08912e+08
1.08267e+08
1.07615e+08
1.06958e+08
1.06295e+08
1.05626e+08
1.04952e+08
1.04272e+08
1.03587e+08
1.02896e+08
1.02201e+08
1.015e+08
1.00794e+08
1.00083e+08
9.93681e+07
9.8648e+07
9.79234e+07
9.71943e+07
9.64608e+07
9.57231e+07
9.49811e+07
9.4235e+07
9.34849e+07
9.27309e+07
9.1973e+07
9.12113e+07
9.04459e+07
8.96769e+07
8.89044e+07
8.81284e+07
8.73491e+07
8.65664e+07
8.57805e+07
8.49915e+07
8.41994e+07
8.34043e+07
8.26062e+07
8.18053e+07
8.10017e+07
8.01953e+07
7.93863e+07
7.85748e+07
7.77608e+07
7.69444e+07
7.61256e+07
7.53046e+07
7.44814e+07
7.36561e+07
7.28288e+07
7.19995e+07
7.11683e+07
7.03354e+07
6.95007e+07
6.86644e+07
6.78265e+07
6.69872e+07
6.61465e+07
6.53045e+07
6.44612e+07
6.36168e+07
6.27714e+07
6.1925e+07
6.10778e+07
6.02297e+07
5.9381e+07
5.85317e+07
5.7682e+07
5.68318e+07
5.59814e+07
5.51307e+07
5.428e+07
5.34294e+07
5.25788e+07
5.17286e+07
5.08786e+07
5.00292e+07
4.91804e+07
4.83323e+07
4.7485e+07
4.66387e+07
4.57935e+07
4.49495e+07
4.41069e+07
4.32658e+07
4.24263e+07
4.15886e+07
4.07528e+07
3.99191e+07
3.90877e+07
3.82586e+07
3.74321e+07
3.66082e+07
3.57873e+07
3.49694e+07
3.41547e+07
3.33434e+07
3.25356e+07
3.17317e+07
3.09317e+07
3.01358e+07
2.93444e+07
2.85575e+07
2.77754e+07
2.69983e+07
2.62264e+07
2.54601e+07
2.46996e+07
2.39452e+07
2.31971e+07
2.24558e+07
2.17215e+07
2.09949e+07
2.02763e+07
1.95665e+07
1.88663e+07
1.81768e+07
1.74995e+07
1.68367e+07
1.3111e+08
1.31099e+08
1.31077e+08
1.31044e+08
1.30999e+08
1.30943e+08
1.30875e+08
1.30795e+08
1.30703e+08
1.30599e+08
1.30482e+08
1.30353e+08
1.30211e+08
1.30057e+08
1.2989e+08
1.29711e+08
1.29519e+08
1.29314e+08
1.29097e+08
1.28867e+08
1.28625e+08
1.2837e+08
1.28103e+08
1.27824e+08
1.27532e+08
1.27229e+08
1.26913e+08
1.26586e+08
1.26247e+08
1.25896e+08
1.25534e+08
1.25161e+08
1.24777e+08
1.24382e+08
1.23976e+08
1.2356e+08
1.23133e+08
1.22695e+08
1.22248e+08
1.21791e+08
1.21324e+08
1.20848e+08
1.20362e+08
1.19867e+08
1.19363e+08
1.1885e+08
1.18328e+08
1.17798e+08
1.1726e+08
1.16713e+08
1.16158e+08
1.15595e+08
1.15025e+08
1.14447e+08
1.13861e+08
1.13269e+08
1.12669e+08
1.12062e+08
1.11448e+08
1.10828e+08
1.10201e+08
1.09567e+08
1.08927e+08
1.08281e+08
1.07629e+08
1.06971e+08
1.06308e+08
1.05638e+08
1.04963e+08
1.04283e+08
1.03597e+08
1.02905e+08
1.02209e+08
1.01508e+08
1.00802e+08
1.00091e+08
9.93747e+07
9.86542e+07
9.79292e+07
9.71998e+07
9.6466e+07
9.57279e+07
9.49856e+07
9.42392e+07
9.34888e+07
9.27345e+07
9.19764e+07
9.12145e+07
9.04489e+07
8.96797e+07
8.8907e+07
8.81308e+07
8.73513e+07
8.65685e+07
8.57824e+07
8.49932e+07
8.4201e+07
8.34058e+07
8.26076e+07
8.18067e+07
8.10029e+07
8.01964e+07
7.93874e+07
7.85758e+07
7.77617e+07
7.69452e+07
7.61264e+07
7.53053e+07
7.4482e+07
7.36567e+07
7.28293e+07
7.2e+07
7.11688e+07
7.03358e+07
6.95011e+07
6.86648e+07
6.78269e+07
6.69875e+07
6.61468e+07
6.53047e+07
6.44614e+07
6.3617e+07
6.27716e+07
6.19252e+07
6.10779e+07
6.02299e+07
5.93812e+07
5.85319e+07
5.76821e+07
5.68319e+07
5.59815e+07
5.51308e+07
5.42801e+07
5.34294e+07
5.25789e+07
5.17286e+07
5.08787e+07
5.00293e+07
4.91804e+07
4.83323e+07
4.7485e+07
4.66387e+07
4.57935e+07
4.49495e+07
4.41069e+07
4.32658e+07
4.24263e+07
4.15886e+07
4.07528e+07
3.99191e+07
3.90877e+07
3.82586e+07
3.74321e+07
3.66082e+07
3.57873e+07
3.49694e+07
3.41547e+07
3.33434e+07
3.25356e+07
3.17317e+07
3.09317e+07
3.01358e+07
2.93443e+07
2.85574e+07
2.77753e+07
2.69981e+07
2.62263e+07
2.54599e+07
2.46994e+07
2.39449e+07
2.31967e+07
2.24553e+07
2.17209e+07
2.0994e+07
2.02752e+07
1.95649e+07
1.8864e+07
1.81734e+07
1.74941e+07
1.68271e+07
1.31304e+08
1.31293e+08
1.3127e+08
1.31236e+08
1.3119e+08
1.31132e+08
1.31062e+08
1.3098e+08
1.30886e+08
1.30779e+08
1.3066e+08
1.30528e+08
1.30383e+08
1.30226e+08
1.30056e+08
1.29873e+08
1.29677e+08
1.29469e+08
1.29248e+08
1.29014e+08
1.28768e+08
1.28509e+08
1.28237e+08
1.27954e+08
1.27658e+08
1.2735e+08
1.27031e+08
1.26699e+08
1.26356e+08
1.26002e+08
1.25636e+08
1.25259e+08
1.24871e+08
1.24472e+08
1.24062e+08
1.23642e+08
1.23212e+08
1.22771e+08
1.2232e+08
1.2186e+08
1.2139e+08
1.20911e+08
1.20422e+08
1.19924e+08
1.19417e+08
1.18902e+08
1.18378e+08
1.17845e+08
1.17304e+08
1.16755e+08
1.16198e+08
1.15633e+08
1.15061e+08
1.14481e+08
1.13894e+08
1.13299e+08
1.12698e+08
1.12089e+08
1.11474e+08
1.10852e+08
1.10224e+08
1.09589e+08
1.08948e+08
1.08301e+08
1.07648e+08
1.06989e+08
1.06324e+08
1.05654e+08
1.04978e+08
1.04296e+08
1.03609e+08
1.02918e+08
1.02221e+08
1.01519e+08
1.00812e+08
1.001e+08
9.93835e+07
9.86625e+07
9.7937e+07
9.7207e+07
9.64727e+07
9.57342e+07
9.49915e+07
9.42447e+07
9.3494e+07
9.27393e+07
9.19809e+07
9.12187e+07
9.04528e+07
8.96833e+07
8.89104e+07
8.8134e+07
8.73542e+07
8.65712e+07
8.57849e+07
8.49956e+07
8.42032e+07
8.34078e+07
8.26095e+07
8.18084e+07
8.10045e+07
8.01979e+07
7.93887e+07
7.8577e+07
7.77628e+07
7.69463e+07
7.61273e+07
7.53062e+07
7.44829e+07
7.36575e+07
7.283e+07
7.20006e+07
7.11694e+07
7.03363e+07
6.95016e+07
6.86652e+07
6.78273e+07
6.69879e+07
6.61471e+07
6.5305e+07
6.44617e+07
6.36173e+07
6.27718e+07
6.19254e+07
6.10781e+07
6.02301e+07
5.93813e+07
5.8532e+07
5.76822e+07
5.6832e+07
5.59816e+07
5.51309e+07
5.42802e+07
5.34295e+07
5.2579e+07
5.17287e+07
5.08788e+07
5.00293e+07
4.91805e+07
4.83323e+07
4.74851e+07
4.66387e+07
4.57935e+07
4.49495e+07
4.41069e+07
4.32658e+07
4.24263e+07
4.15886e+07
4.07528e+07
3.99191e+07
3.90877e+07
3.82586e+07
3.74321e+07
3.66082e+07
3.57873e+07
3.49694e+07
3.41546e+07
3.33433e+07
3.25356e+07
3.17316e+07
3.09316e+07
3.01357e+07
2.93442e+07
2.85573e+07
2.77751e+07
2.6998e+07
2.62261e+07
2.54597e+07
2.4699e+07
2.39444e+07
2.31962e+07
2.24546e+07
2.172e+07
2.09929e+07
2.02737e+07
1.95629e+07
1.88612e+07
1.81693e+07
1.74878e+07
1.68169e+07
1.31549e+08
1.31537e+08
1.31513e+08
1.31478e+08
1.3143e+08
1.31371e+08
1.31299e+08
1.31214e+08
1.31117e+08
1.31007e+08
1.30884e+08
1.30749e+08
1.306e+08
1.30438e+08
1.30264e+08
1.30076e+08
1.29876e+08
1.29663e+08
1.29436e+08
1.29198e+08
1.28946e+08
1.28682e+08
1.28405e+08
1.28117e+08
1.27816e+08
1.27502e+08
1.27178e+08
1.26841e+08
1.26493e+08
1.26133e+08
1.25762e+08
1.2538e+08
1.24987e+08
1.24583e+08
1.24169e+08
1.23745e+08
1.2331e+08
1.22865e+08
1.2241e+08
1.21946e+08
1.21472e+08
1.20989e+08
1.20496e+08
1.19995e+08
1.19485e+08
1.18966e+08
1.18439e+08
1.17903e+08
1.17359e+08
1.16808e+08
1.16248e+08
1.15681e+08
1.15106e+08
1.14524e+08
1.13934e+08
1.13337e+08
1.12734e+08
1.12124e+08
1.11506e+08
1.10883e+08
1.10253e+08
1.09616e+08
1.08974e+08
1.08325e+08
1.07671e+08
1.0701e+08
1.06344e+08
1.05673e+08
1.04996e+08
1.04313e+08
1.03625e+08
1.02933e+08
1.02235e+08
1.01532e+08
1.00824e+08
1.00112e+08
9.93945e+07
9.86727e+07
9.79466e+07
9.7216e+07
9.64811e+07
9.57421e+07
9.49989e+07
9.42516e+07
9.35004e+07
9.27453e+07
9.19865e+07
9.12239e+07
9.04576e+07
8.96878e+07
8.89146e+07
8.81379e+07
8.73578e+07
8.65746e+07
8.57881e+07
8.49985e+07
8.42059e+07
8.34103e+07
8.26118e+07
8.18105e+07
8.10065e+07
8.01998e+07
7.93904e+07
7.85786e+07
7.77643e+07
7.69476e+07
7.61286e+07
7.53073e+07
7.44839e+07
7.36584e+07
7.28309e+07
7.20015e+07
7.11701e+07
7.0337e+07
6.95022e+07
6.86658e+07
6.78278e+07
6.69884e+07
6.61476e+07
6.53054e+07
6.44621e+07
6.36176e+07
6.27721e+07
6.19257e+07
6.10784e+07
6.02303e+07
5.93815e+07
5.85322e+07
5.76824e+07
5.68322e+07
5.59817e+07
5.51311e+07
5.42803e+07
5.34296e+07
5.25791e+07
5.17288e+07
5.08788e+07
5.00294e+07
4.91805e+07
4.83324e+07
4.74851e+07
4.66388e+07
4.57936e+07
4.49496e+07
4.4107e+07
4.32658e+07
4.24263e+07
4.15886e+07
4.07529e+07
3.99192e+07
3.90877e+07
3.82586e+07
3.74321e+07
3.66082e+07
3.57873e+07
3.49693e+07
3.41546e+07
3.33433e+07
3.25356e+07
3.17316e+07
3.09315e+07
3.01357e+07
2.93441e+07
2.85572e+07
2.7775e+07
2.69978e+07
2.62258e+07
2.54594e+07
2.46987e+07
2.3944e+07
2.31956e+07
2.24538e+07
2.1719e+07
2.09916e+07
2.02719e+07
1.95605e+07
1.88579e+07
1.81646e+07
1.74809e+07
1.68067e+07
1.31846e+08
1.31833e+08
1.31808e+08
1.31771e+08
1.31722e+08
1.3166e+08
1.31585e+08
1.31497e+08
1.31397e+08
1.31283e+08
1.31156e+08
1.31015e+08
1.30862e+08
1.30695e+08
1.30515e+08
1.30322e+08
1.30115e+08
1.29896e+08
1.29664e+08
1.29419e+08
1.29161e+08
1.2889e+08
1.28607e+08
1.28312e+08
1.28004e+08
1.27685e+08
1.27353e+08
1.2701e+08
1.26656e+08
1.2629e+08
1.25913e+08
1.25525e+08
1.25126e+08
1.24717e+08
1.24297e+08
1.23867e+08
1.23427e+08
1.22977e+08
1.22517e+08
1.22048e+08
1.2157e+08
1.21082e+08
1.20585e+08
1.2008e+08
1.19565e+08
1.19043e+08
1.18512e+08
1.17973e+08
1.17425e+08
1.1687e+08
1.16307e+08
1.15737e+08
1.15159e+08
1.14574e+08
1.13982e+08
1.13383e+08
1.12777e+08
1.12164e+08
1.11545e+08
1.10919e+08
1.10287e+08
1.09649e+08
1.09004e+08
1.08354e+08
1.07698e+08
1.07036e+08
1.06369e+08
1.05696e+08
1.05017e+08
1.04333e+08
1.03644e+08
1.0295e+08
1.02251e+08
1.01548e+08
1.00839e+08
1.00125e+08
9.94075e+07
9.86849e+07
9.7958e+07
9.72267e+07
9.64911e+07
9.57514e+07
9.50076e+07
9.42598e+07
9.3508e+07
9.27525e+07
9.19931e+07
9.12301e+07
9.04634e+07
8.96932e+07
8.89196e+07
8.81425e+07
8.73622e+07
8.65786e+07
8.57918e+07
8.5002e+07
8.42091e+07
8.34133e+07
8.26146e+07
8.18131e+07
8.10089e+07
8.0202e+07
7.93925e+07
7.85805e+07
7.7766e+07
7.69492e+07
7.61301e+07
7.53087e+07
7.44852e+07
7.36596e+07
7.2832e+07
7.20024e+07
7.1171e+07
7.03379e+07
6.9503e+07
6.86665e+07
6.78285e+07
6.6989e+07
6.61481e+07
6.53059e+07
6.44625e+07
6.3618e+07
6.27725e+07
6.1926e+07
6.10787e+07
6.02306e+07
5.93818e+07
5.85324e+07
5.76826e+07
5.68324e+07
5.59819e+07
5.51312e+07
5.42805e+07
5.34298e+07
5.25792e+07
5.17289e+07
5.08789e+07
5.00295e+07
4.91806e+07
4.83325e+07
4.74852e+07
4.66388e+07
4.57936e+07
4.49496e+07
4.4107e+07
4.32659e+07
4.24264e+07
4.15887e+07
4.07529e+07
3.99192e+07
3.90877e+07
3.82586e+07
3.74321e+07
3.66082e+07
3.57873e+07
3.49693e+07
3.41546e+07
3.33433e+07
3.25355e+07
3.17315e+07
3.09315e+07
3.01356e+07
2.9344e+07
2.8557e+07
2.77748e+07
2.69976e+07
2.62256e+07
2.5459e+07
2.46982e+07
2.39434e+07
2.31948e+07
2.24529e+07
2.17178e+07
2.099e+07
2.02699e+07
1.95578e+07
1.88542e+07
1.81595e+07
1.74737e+07
1.67966e+07
1.32197e+08
1.32184e+08
1.32157e+08
1.32119e+08
1.32067e+08
1.32002e+08
1.31924e+08
1.31832e+08
1.31727e+08
1.31608e+08
1.31476e+08
1.3133e+08
1.3117e+08
1.30997e+08
1.3081e+08
1.3061e+08
1.30396e+08
1.3017e+08
1.2993e+08
1.29677e+08
1.29411e+08
1.29133e+08
1.28842e+08
1.28539e+08
1.28224e+08
1.27897e+08
1.27558e+08
1.27207e+08
1.26845e+08
1.26472e+08
1.26088e+08
1.25693e+08
1.25288e+08
1.24871e+08
1.24445e+08
1.24009e+08
1.23563e+08
1.23107e+08
1.22641e+08
1.22166e+08
1.21682e+08
1.2119e+08
1.20688e+08
1.20177e+08
1.19659e+08
1.19131e+08
1.18596e+08
1.18053e+08
1.17501e+08
1.16942e+08
1.16376e+08
1.15802e+08
1.15221e+08
1.14633e+08
1.14038e+08
1.13435e+08
1.12827e+08
1.12211e+08
1.11589e+08
1.10961e+08
1.10327e+08
1.09686e+08
1.0904e+08
1.08388e+08
1.07729e+08
1.07066e+08
1.06397e+08
1.05722e+08
1.05042e+08
1.04357e+08
1.03666e+08
1.02971e+08
1.02271e+08
1.01566e+08
1.00856e+08
1.00141e+08
9.94225e+07
9.8699e+07
9.79712e+07
9.7239e+07
9.65027e+07
9.57622e+07
9.50177e+07
9.42692e+07
9.35169e+07
9.27607e+07
9.20008e+07
9.12372e+07
9.04701e+07
8.96994e+07
8.89253e+07
8.81479e+07
8.73672e+07
8.65832e+07
8.57961e+07
8.5006e+07
8.42128e+07
8.34167e+07
8.26178e+07
8.18161e+07
8.10116e+07
8.02045e+07
7.93948e+07
7.85826e+07
7.7768e+07
7.6951e+07
7.61317e+07
7.53102e+07
7.44866e+07
7.36609e+07
7.28332e+07
7.20035e+07
7.11721e+07
7.03388e+07
6.95038e+07
6.86673e+07
6.78292e+07
6.69896e+07
6.61487e+07
6.53065e+07
6.44631e+07
6.36185e+07
6.27729e+07
6.19264e+07
6.1079e+07
6.02309e+07
5.93821e+07
5.85327e+07
5.76828e+07
5.68326e+07
5.59821e+07
5.51314e+07
5.42806e+07
5.34299e+07
5.25793e+07
5.1729e+07
5.0879e+07
5.00296e+07
4.91807e+07
4.83325e+07
4.74852e+07
4.66389e+07
4.57937e+07
4.49497e+07
4.4107e+07
4.32659e+07
4.24264e+07
4.15887e+07
4.07529e+07
3.99192e+07
3.90877e+07
3.82586e+07
3.74321e+07
3.66082e+07
3.57872e+07
3.49693e+07
3.41546e+07
3.33432e+07
3.25355e+07
3.17315e+07
3.09314e+07
3.01355e+07
2.93439e+07
2.85569e+07
2.77746e+07
2.69973e+07
2.62252e+07
2.54586e+07
2.46977e+07
2.39428e+07
2.3194e+07
2.24518e+07
2.17165e+07
2.09883e+07
2.02676e+07
1.95548e+07
1.88502e+07
1.81541e+07
1.74665e+07
1.67868e+07
1.32605e+08
1.32591e+08
1.32563e+08
1.32522e+08
1.32467e+08
1.32399e+08
1.32316e+08
1.3222e+08
1.32109e+08
1.31984e+08
1.31845e+08
1.31692e+08
1.31526e+08
1.31345e+08
1.3115e+08
1.30942e+08
1.3072e+08
1.30484e+08
1.30235e+08
1.29974e+08
1.29699e+08
1.29411e+08
1.29112e+08
1.28799e+08
1.28475e+08
1.28139e+08
1.27791e+08
1.27432e+08
1.27061e+08
1.2668e+08
1.26287e+08
1.25884e+08
1.25471e+08
1.25047e+08
1.24613e+08
1.2417e+08
1.23716e+08
1.23254e+08
1.22782e+08
1.223e+08
1.2181e+08
1.21311e+08
1.20804e+08
1.20288e+08
1.19764e+08
1.19232e+08
1.18691e+08
1.18143e+08
1.17587e+08
1.17024e+08
1.16454e+08
1.15876e+08
1.15291e+08
1.14699e+08
1.141e+08
1.13495e+08
1.12883e+08
1.12264e+08
1.1164e+08
1.11009e+08
1.10372e+08
1.09729e+08
1.0908e+08
1.08425e+08
1.07765e+08
1.07099e+08
1.06428e+08
1.05752e+08
1.0507e+08
1.04383e+08
1.03691e+08
1.02994e+08
1.02293e+08
1.01586e+08
1.00875e+08
1.0016e+08
9.94394e+07
9.87149e+07
9.79861e+07
9.7253e+07
9.65157e+07
9.57744e+07
9.50291e+07
9.42799e+07
9.35268e+07
9.277e+07
9.20094e+07
9.12453e+07
9.04776e+07
8.97064e+07
8.89319e+07
8.8154e+07
8.73728e+07
8.65885e+07
8.5801e+07
8.50105e+07
8.4217e+07
8.34206e+07
8.26214e+07
8.18194e+07
8.10147e+07
8.02074e+07
7.93975e+07
7.85851e+07
7.77703e+07
7.69531e+07
7.61337e+07
7.5312e+07
7.44882e+07
7.36624e+07
7.28346e+07
7.20048e+07
7.11732e+07
7.03399e+07
6.95048e+07
6.86682e+07
6.783e+07
6.69904e+07
6.61494e+07
6.53071e+07
6.44636e+07
6.3619e+07
6.27734e+07
6.19268e+07
6.10794e+07
6.02313e+07
5.93824e+07
5.8533e+07
5.76831e+07
5.68329e+07
5.59823e+07
5.51316e+07
5.42808e+07
5.34301e+07
5.25795e+07
5.17291e+07
5.08792e+07
5.00297e+07
4.91808e+07
4.83326e+07
4.74853e+07
4.6639e+07
4.57937e+07
4.49497e+07
4.41071e+07
4.32659e+07
4.24264e+07
4.15887e+07
4.07529e+07
3.99192e+07
3.90877e+07
3.82586e+07
3.74321e+07
3.66082e+07
3.57872e+07
3.49693e+07
3.41546e+07
3.33432e+07
3.25354e+07
3.17314e+07
3.09313e+07
3.01354e+07
2.93438e+07
2.85567e+07
2.77744e+07
2.6997e+07
2.62249e+07
2.54582e+07
2.46972e+07
2.39421e+07
2.31931e+07
2.24507e+07
2.1715e+07
2.09864e+07
2.02652e+07
1.95517e+07
1.88461e+07
1.81486e+07
1.74592e+07
1.67773e+07
1.33074e+08
1.33058e+08
1.33028e+08
1.32984e+08
1.32926e+08
1.32853e+08
1.32765e+08
1.32663e+08
1.32546e+08
1.32414e+08
1.32267e+08
1.32106e+08
1.3193e+08
1.3174e+08
1.31536e+08
1.31318e+08
1.31085e+08
1.3084e+08
1.3058e+08
1.30308e+08
1.30023e+08
1.29725e+08
1.29414e+08
1.29092e+08
1.28757e+08
1.28411e+08
1.28053e+08
1.27683e+08
1.27303e+08
1.26912e+08
1.2651e+08
1.26098e+08
1.25675e+08
1.25243e+08
1.24801e+08
1.24349e+08
1.23888e+08
1.23417e+08
1.22938e+08
1.2245e+08
1.21952e+08
1.21447e+08
1.20933e+08
1.20411e+08
1.19881e+08
1.19343e+08
1.18797e+08
1.18244e+08
1.17683e+08
1.17115e+08
1.1654e+08
1.15957e+08
1.15368e+08
1.14772e+08
1.1417e+08
1.13561e+08
1.12945e+08
1.12323e+08
1.11695e+08
1.11061e+08
1.10421e+08
1.09776e+08
1.09124e+08
1.08467e+08
1.07804e+08
1.07136e+08
1.06463e+08
1.05785e+08
1.05101e+08
1.04412e+08
1.03719e+08
1.0302e+08
1.02317e+08
1.01609e+08
1.00897e+08
1.0018e+08
9.94583e+07
9.87326e+07
9.80026e+07
9.72685e+07
9.65302e+07
9.5788e+07
9.50418e+07
9.42917e+07
9.35379e+07
9.27803e+07
9.20191e+07
9.12543e+07
9.0486e+07
8.97142e+07
8.89391e+07
8.81607e+07
8.73791e+07
8.65943e+07
8.58064e+07
8.50155e+07
8.42217e+07
8.3425e+07
8.26254e+07
8.18231e+07
8.10181e+07
8.02105e+07
7.94004e+07
7.85878e+07
7.77728e+07
7.69554e+07
7.61358e+07
7.5314e+07
7.449e+07
7.36641e+07
7.28361e+07
7.20062e+07
7.11745e+07
7.03411e+07
6.95059e+07
6.86692e+07
6.78309e+07
6.69912e+07
6.61502e+07
6.53078e+07
6.44643e+07
6.36196e+07
6.27739e+07
6.19273e+07
6.10799e+07
6.02317e+07
5.93828e+07
5.85333e+07
5.76834e+07
5.68331e+07
5.59826e+07
5.51318e+07
5.4281e+07
5.34303e+07
5.25796e+07
5.17293e+07
5.08793e+07
5.00298e+07
4.91809e+07
4.83327e+07
4.74854e+07
4.66391e+07
4.57938e+07
4.49498e+07
4.41071e+07
4.3266e+07
4.24265e+07
4.15888e+07
4.0753e+07
3.99192e+07
3.90878e+07
3.82586e+07
3.74321e+07
3.66082e+07
3.57872e+07
3.49693e+07
3.41545e+07
3.33432e+07
3.25354e+07
3.17313e+07
3.09312e+07
3.01352e+07
2.93436e+07
2.85565e+07
2.77741e+07
2.69967e+07
2.62245e+07
2.54577e+07
2.46966e+07
2.39413e+07
2.31922e+07
2.24495e+07
2.17135e+07
2.09845e+07
2.02627e+07
1.95484e+07
1.88419e+07
1.81431e+07
1.7452e+07
1.67682e+07
1.33606e+08
1.33589e+08
1.33557e+08
1.33509e+08
1.33446e+08
1.33368e+08
1.33274e+08
1.33164e+08
1.33039e+08
1.32899e+08
1.32743e+08
1.32572e+08
1.32385e+08
1.32184e+08
1.31969e+08
1.31739e+08
1.31495e+08
1.31237e+08
1.30966e+08
1.30681e+08
1.30383e+08
1.30073e+08
1.29751e+08
1.29416e+08
1.29069e+08
1.28711e+08
1.28342e+08
1.27961e+08
1.2757e+08
1.27168e+08
1.26755e+08
1.26333e+08
1.25901e+08
1.25458e+08
1.25007e+08
1.24546e+08
1.24076e+08
1.23597e+08
1.23109e+08
1.22613e+08
1.22108e+08
1.21596e+08
1.21075e+08
1.20546e+08
1.20009e+08
1.19465e+08
1.18913e+08
1.18354e+08
1.17788e+08
1.17214e+08
1.16634e+08
1.16047e+08
1.15453e+08
1.14853e+08
1.14246e+08
1.13633e+08
1.13013e+08
1.12388e+08
1.11756e+08
1.11119e+08
1.10476e+08
1.09827e+08
1.09173e+08
1.08513e+08
1.07848e+08
1.07177e+08
1.06502e+08
1.05821e+08
1.05135e+08
1.04444e+08
1.03749e+08
1.03048e+08
1.02344e+08
1.01634e+08
1.0092e+08
1.00202e+08
9.94789e+07
9.87519e+07
9.80207e+07
9.72854e+07
9.65461e+07
9.58028e+07
9.50557e+07
9.43047e+07
9.355e+07
9.27916e+07
9.20296e+07
9.12641e+07
9.04951e+07
8.97228e+07
8.89471e+07
8.81681e+07
8.7386e+07
8.66007e+07
8.58124e+07
8.50211e+07
8.42268e+07
8.34297e+07
8.26298e+07
8.18272e+07
8.10219e+07
8.0214e+07
7.94036e+07
7.85908e+07
7.77755e+07
7.6958e+07
7.61381e+07
7.53161e+07
7.4492e+07