/*--------------------------------*- C++ -*----------------------------------*\
| =========                 |                                                 |
| \\      /  F ield         | OpenFOAM: The Open Source CFD Toolbox           |
|  \\    /   O peration     | Version:  2.1.x                                 |
|   \\  /    A nd           | Web:      www.OpenFOAM.org                      |
|    \\/     M anipulation  |                                                 |
\*---------------------------------------------------------------------------*/
FoamFile
{
    version     2.0;
    format      ascii;
    class       volVectorField;
    location    "0.002";
    object      U;
}
// * * * * * * * * * * * * * * * * * * * * * * * * * * * * * * * * * * * * * //

dimensions      [0 1 -1 0 0 0 0];

internalField   nonuniform List<vector> 
12225
(
(6.98542 0.38592 0)
(4.43395 0.179207 0)
(3.08764 0.022695 0)
(2.52272 -0.0196302 0)
(2.19298 -0.00766828 0)
(2.23761 -0.00738455 0)
(2.16854 -0.0197573 0)
(2.17457 0.0174146 0)
(2.0576 0.00394109 0)
(2.46982 -0.0541105 0)
(2.55691 -0.0116102 0)
(2.42055 0.060975 0)
(2.58008 -0.044969 0)
(3.01676 -0.0978564 0)
(3.65427 -0.0258617 0)
(3.1002 -0.00421936 0)
(4.32251 -0.064588 0)
(3.38078 -0.0800881 0)
(9.81449 0.956815 0)
(9.09248 0.82411 0)
(7.89885 0.427839 0)
(7.08989 0.190189 0)
(6.17544 0.0998292 0)
(6.37006 0.0119155 0)
(5.87939 -0.022232 0)
(5.7226 0.0430456 0)
(5.67732 -0.0328146 0)
(6.46901 -0.185125 0)
(6.1485 -0.0112847 0)
(6.00562 0.0533384 0)
(6.81994 -0.155047 0)
(7.11866 -0.392602 0)
(7.95192 -0.0158789 0)
(7.51652 -0.0717395 0)
(8.2763 -0.336046 0)
(8.89668 -1.01455 0)
(10.2491 0.784901 0)
(10.8517 0.846279 0)
(10.4763 0.549066 0)
(10.2828 0.363443 0)
(9.15994 0.22037 0)
(9.62823 0.0710038 0)
(9.18208 0.12101 0)
(8.68433 0.150184 0)
(8.66574 -0.162508 0)
(9.64951 -0.3606 0)
(8.96419 0.106977 0)
(8.8522 0.0419957 0)
(9.63746 -0.545486 0)
(10.0974 -0.71734 0)
(10.5045 -0.200098 0)
(10.6014 0.0964945 0)
(10.9629 -0.638718 0)
(11.7619 -1.5233 0)
(10.3083 0.521441 0)
(10.5441 0.937907 0)
(11.0881 0.569435 0)
(11.084 0.43627 0)
(10.5183 0.347833 0)
(11.2886 -0.0596432 0)
(11.0689 0.14617 0)
(10.3698 0.346831 0)
(11.0487 -0.235021 0)
(11.5338 -0.531137 0)
(10.3253 0.249673 0)
(10.6945 0.100482 0)
(11.6245 -0.741348 0)
(11.6612 -0.970969 0)
(11.3024 -0.178757 0)
(11.5067 -0.0659879 0)
(12.3742 -1.00151 0)
(12.1857 -1.47896 0)
(9.85494 0.479748 0)
(10.5072 0.595636 0)
(11.0969 0.508457 0)
(11.0564 0.483814 0)
(11.3509 0.140784 0)
(11.3978 -0.127742 0)
(10.9576 0.409307 0)
(11.4054 0.236092 0)
(11.9097 -0.538318 0)
(11.0319 -0.224411 0)
(10.7788 0.483776 0)
(12.1649 -0.223112 0)
(12.2697 -1.05321 0)
(10.8744 -0.636209 0)
(10.6461 0.0568706 0)
(12.1675 -0.318406 0)
(12.7494 -1.08177 0)
(11.8728 -1.23559 0)
(9.98833 0.322595 0)
(10.3 0.724287 0)
(10.592 0.506522 0)
(10.9825 0.24018 0)
(11.2107 0.334692 0)
(11.1709 0.0243475 0)
(11.252 -0.0382127 0)
(11.4971 0.121507 0)
(11.5591 0.058332 0)
(11.2796 -0.312616 0)
(11.4521 -0.358674 0)
(11.9374 -0.215841 0)
(11.7114 -0.241262 0)
(11.1843 -0.412986 0)
(11.5871 -0.743585 0)
(12.1497 -1.16611 0)
(11.8359 -1.06192 0)
(11.6952 -0.963602 0)
(9.76267 0.233589 0)
(10.0048 0.322931 0)
(10.5127 0.344316 0)
(10.6033 0.277295 0)
(10.7552 0.0172492 0)
(10.9836 -0.129854 0)
(10.8236 0.180852 0)
(10.831 0.145389 0)
(11.3029 -0.418347 0)
(11.3136 -0.309585 0)
(11.104 0.209045 0)
(11.3189 -0.169334 0)
(11.5416 -0.921067 0)
(11.3804 -0.804223 0)
(11.3838 -0.288468 0)
(11.506 -0.350704 0)
(11.5146 -0.945103 0)
(11.7704 -1.73092 0)
(10.3217 0.25877 0)
(10.3146 0.453853 0)
(10.3879 0.405933 0)
(10.4937 0.162049 0)
(10.6745 0.203172 0)
(10.696 -0.000390574 0)
(10.7559 -0.113288 0)
(10.9932 -0.0105322 0)
(11.1509 -0.0821752 0)
(11.0409 -0.309132 0)
(11.1255 -0.363384 0)
(11.4363 -0.258425 0)
(11.4492 -0.313808 0)
(11.0703 -0.528881 0)
(11.0121 -0.711796 0)
(11.4495 -0.966791 0)
(11.7716 -1.2717 0)
(11.6522 -1.21867 0)
(9.96507 0.162554 0)
(10.1599 0.300152 0)
(10.4428 0.286091 0)
(10.5091 0.205967 0)
(10.5814 0.0164641 0)
(10.8127 -0.12272 0)
(10.8295 -0.0296881 0)
(10.7498 -0.0470521 0)
(10.9914 -0.328456 0)
(11.1384 -0.363008 0)
(11.045 -0.0808521 0)
(11.0292 -0.174119 0)
(11.2309 -0.728079 0)
(11.2427 -0.800466 0)
(11.1751 -0.437217 0)
(11.3204 -0.683594 0)
(11.5493 -1.24696 0)
(11.4688 -1.41125 0)
(10.0707 0.0796074 0)
(10.1161 0.273789 0)
(10.2963 0.317202 0)
(10.4742 0.139284 0)
(10.7282 0.107175 0)
(10.823 -0.0295578 0)
(10.7888 -0.199142 0)
(10.8235 -0.147687 0)
(10.8573 -0.118653 0)
(10.783 -0.281242 0)
(10.8367 -0.400202 0)
(11.0672 -0.376713 0)
(11.1645 -0.360667 0)
(10.8918 -0.495829 0)
(10.8612 -0.842057 0)
(11.2908 -1.19595 0)
(11.2916 -1.26628 0)
(10.7954 -1.01656 0)
(9.85984 0.239138 0)
(10.0358 0.187705 0)
(10.3062 0.0940908 0)
(10.4062 0.0367109 0)
(10.4851 -0.0671051 0)
(10.6311 -0.15091 0)
(10.6734 -0.0902833 0)
(10.5729 -0.115287 0)
(10.629 -0.276966 0)
(10.8622 -0.352358 0)
(10.9323 -0.266774 0)
(10.8195 -0.305525 0)
(10.8487 -0.619456 0)
(11.0193 -0.827792 0)
(11.096 -0.73381 0)
(10.9549 -0.708863 0)
(10.7702 -0.904271 0)
(10.9862 -1.5097 0)
(10.0343 -0.0124645 0)
(10.2079 0.0153161 0)
(10.254 0.137912 0)
(10.1946 0.105432 0)
(10.2841 0.0392674 0)
(10.438 -0.0704239 0)
(10.4908 -0.213163 0)
(10.5344 -0.275696 0)
(10.6175 -0.236884 0)
(10.6386 -0.304014 0)
(10.6316 -0.438371 0)
(10.7078 -0.454039 0)
(10.7506 -0.45691 0)
(10.6055 -0.622988 0)
(10.4919 -0.844569 0)
(10.6686 -0.984006 0)
(10.9959 -1.29093 0)
(10.9869 -1.9136 0)
(10.2018 0.0386815 0)
(10.1509 0.0871328 0)
(10.1625 0.0833699 0)
(10.1738 -0.0115976 0)
(10.2871 -0.129747 0)
(10.4414 -0.24536 0)
(10.5009 -0.263808 0)
(10.4558 -0.251201 0)
(10.4239 -0.292533 0)
(10.5357 -0.344475 0)
(10.6473 -0.325445 0)
(10.5805 -0.377955 0)
(10.5123 -0.574885 0)
(10.6188 -0.730373 0)
(10.7174 -0.794016 0)
(10.6882 -1.0643 0)
(10.6497 -1.2216 0)
(10.6572 -0.519418 0)
(10.133 -0.0560777 0)
(10.3037 0.0753431 0)
(10.3984 0.105639 0)
(10.3697 0.0340493 0)
(10.3796 -0.0689376 0)
(10.4274 -0.178136 0)
(10.3828 -0.252523 0)
(10.2941 -0.316792 0)
(10.2911 -0.322924 0)
(10.3666 -0.331215 0)
(10.4099 -0.409365 0)
(10.4225 -0.509512 0)
(10.4499 -0.569156 0)
(10.4335 -0.710832 0)
(10.4166 -0.925592 0)
(10.4844 -1.00766 0)
(10.4829 -1.17218 0)
(10.4464 -1.94726 0)
(9.85897 -0.00765601 0)
(10.0875 -0.0912663 0)
(10.2604 -0.0296066 0)
(10.3111 -0.0215482 0)
(10.3467 -0.0801296 0)
(10.3829 -0.181699 0)
(10.3267 -0.251421 0)
(10.2359 -0.294208 0)
(10.2266 -0.316265 0)
(10.3391 -0.36016 0)
(10.4775 -0.408079 0)
(10.5212 -0.479396 0)
(10.5063 -0.605222 0)
(10.5383 -0.760598 0)
(10.5892 -0.880189 0)
(10.5812 -1.04352 0)
(10.5672 -1.19115 0)
(10.5119 -1.12091 0)
(9.83841 -0.0625536 0)
(9.91633 -0.238256 0)
(9.9759 -0.155137 0)
(10.0077 -0.0675819 0)
(10.1135 -0.0410211 0)
(10.2363 -0.0919803 0)
(10.2463 -0.184081 0)
(10.1942 -0.308756 0)
(10.2134 -0.411943 0)
(10.3258 -0.488424 0)
(10.4179 -0.554364 0)
(10.4181 -0.632744 0)
(10.3863 -0.698742 0)
(10.3643 -0.773342 0)
(10.3422 -0.874313 0)
(10.3205 -0.983728 0)
(10.275 -1.0923 0)
(10.2221 -1.24868 0)
(9.87929 -0.0643861 0)
(9.89433 -0.158962 0)
(9.8654 -0.194685 0)
(9.79729 -0.200164 0)
(9.90149 -0.215653 0)
(10.0922 -0.273188 0)
(10.1708 -0.347892 0)
(10.1449 -0.422753 0)
(10.1381 -0.461789 0)
(10.184 -0.484989 0)
(10.2003 -0.510486 0)
(10.1377 -0.557857 0)
(10.0581 -0.624604 0)
(10.0203 -0.719076 0)
(10.019 -0.822333 0)
(10.0167 -0.932128 0)
(9.99298 -1.04177 0)
(9.95238 -1.14401 0)
(10.1491 0.127847 0)
(10.1858 -0.0509434 0)
(10.1646 -0.142298 0)
(10.1332 -0.213829 0)
(10.2294 -0.285341 0)
(10.3591 -0.353435 0)
(10.3464 -0.38516 0)
(10.2278 -0.395401 0)
(10.1502 -0.390013 0)
(10.1515 -0.397257 0)
(10.1476 -0.42824 0)
(10.0897 -0.494248 0)
(10.0287 -0.580041 0)
(10.0061 -0.682107 0)
(10.0087 -0.785253 0)
(10.0029 -0.886939 0)
(9.97372 -0.977079 0)
(9.92639 -1.05748 0)
(10.3263 0.0783718 0)
(10.3981 -0.0260192 0)
(10.4168 -0.154982 0)
(10.3402 -0.283502 0)
(10.3407 -0.355011 0)
(10.4136 -0.364165 0)
(10.3892 -0.322127 0)
(10.2713 -0.284213 0)
(10.1971 -0.276196 0)
(10.2 -0.3122 0)
(10.1883 -0.379308 0)
(10.112 -0.471952 0)
(10.0253 -0.572259 0)
(9.97699 -0.675503 0)
(9.95849 -0.766768 0)
(9.93469 -0.84673 0)
(9.8903 -0.91178 0)
(9.8329 -0.967351 0)
(9.95421 0.0878893 0)
(10.038 -0.0370606 0)
(10.1154 -0.0916792 0)
(10.0624 -0.198985 0)
(10.0591 -0.293287 0)
(10.1188 -0.3366 0)
(10.1041 -0.316664 0)
(10.0478 -0.270465 0)
(10.0787 -0.22975 0)
(10.1986 -0.226601 0)
(10.2901 -0.264436 0)
(10.2876 -0.342428 0)
(10.2385 -0.44111 0)
(10.1973 -0.549566 0)
(10.1644 -0.648165 0)
(10.1121 -0.733552 0)
(10.033 -0.799852 0)
(9.9398 -0.8519 0)
(10.0481 0.0631577 0)
(10.1331 -0.0509666 0)
(10.2237 -0.175882 0)
(10.2011 -0.273123 0)
(10.2213 -0.31548 0)
(10.2754 -0.337379 0)
(10.2356 -0.352703 0)
(10.1475 -0.372429 0)
(10.1525 -0.389083 0)
(10.2557 -0.408776 0)
(10.3379 -0.432817 0)
(10.3312 -0.466127 0)
(10.2791 -0.500922 0)
(10.235 -0.539164 0)
(10.1978 -0.575331 0)
(10.14 -0.612484 0)
(10.0532 -0.646075 0)
(9.95348 -0.678204 0)
(10.0224 -0.104922 0)
(10.1347 -0.146414 0)
(10.2285 -0.23486 0)
(10.2391 -0.255592 0)
(10.2929 -0.25287 0)
(10.3925 -0.270016 0)
(10.4033 -0.297285 0)
(10.3327 -0.320265 0)
(10.3026 -0.32706 0)
(10.3297 -0.330837 0)
(10.3178 -0.342494 0)
(10.2246 -0.368753 0)
(10.1119 -0.400996 0)
(10.0376 -0.438382 0)
(9.99538 -0.474725 0)
(9.94888 -0.511032 0)
(9.88442 -0.542445 0)
(9.81299 -0.569161 0)
(10.288 -0.0933392 0)
(10.3114 -0.210549 0)
(10.4023 -0.273468 0)
(10.5239 -0.297686 0)
(10.6865 -0.308997 0)
(10.826 -0.345275 0)
(10.8207 -0.376698 0)
(10.701 -0.373159 0)
(10.603 -0.338908 0)
(10.5607 -0.308634 0)
(10.4957 -0.30087 0)
(10.3731 -0.318099 0)
(10.2464 -0.347753 0)
(10.1626 -0.384936 0)
(10.1092 -0.42019 0)
(10.049 -0.453066 0)
(9.97091 -0.477651 0)
(9.88434 -0.494679 0)
(10.1561 -0.0713775 0)
(10.1989 -0.268909 0)
(10.331 -0.429563 0)
(10.5139 -0.464963 0)
(10.6663 -0.393993 0)
(10.7351 -0.336653 0)
(10.6751 -0.300802 0)
(10.5528 -0.24571 0)
(10.4882 -0.176854 0)
(10.4933 -0.141855 0)
(10.4799 -0.151844 0)
(10.4056 -0.18921 0)
(10.3126 -0.232453 0)
(10.2439 -0.275391 0)
(10.1894 -0.311949 0)
(10.1194 -0.343174 0)
(10.0291 -0.363845 0)
(9.93045 -0.375792 0)
(10.2229 -0.140125 0)
(10.4252 -0.303922 0)
(10.5782 -0.451392 0)
(10.6774 -0.449742 0)
(10.7431 -0.346385 0)
(10.7786 -0.301495 0)
(10.7692 -0.311004 0)
(10.7371 -0.29492 0)
(10.7274 -0.237879 0)
(10.735 -0.193581 0)
(10.7056 -0.188719 0)
(10.6158 -0.207142 0)
(10.5028 -0.226771 0)
(10.4063 -0.245495 0)
(10.3196 -0.264059 0)
(10.2206 -0.282428 0)
(10.1072 -0.292185 0)
(9.98972 -0.294173 0)
(9.74237 -0.186953 0)
(10.0663 -0.450059 0)
(10.468 -0.603085 0)
(10.7723 -0.551827 0)
(10.9149 -0.411715 0)
(10.9395 -0.353665 0)
(10.9101 -0.348385 0)
(10.8727 -0.276044 0)
(10.8606 -0.159058 0)
(10.8606 -0.0922869 0)
(10.8309 -0.0870736 0)
(10.7553 -0.104759 0)
(10.6567 -0.117181 0)
(10.5596 -0.125383 0)
(10.4573 -0.137974 0)
(10.3391 -0.152873 0)
(10.2071 -0.160825 0)
(10.0708 -0.161502 0)
(9.91529 -0.288729 0)
(10.4417 -0.624017 0)
(10.8627 -0.723273 0)
(11.0394 -0.574262 0)
(11.0786 -0.380778 0)
(11.076 -0.324896 0)
(11.0435 -0.363665 0)
(10.9896 -0.315703 0)
(10.9231 -0.189623 0)
(10.852 -0.104096 0)
(10.7716 -0.0864327 0)
(10.6626 -0.0869641 0)
(10.5393 -0.0765157 0)
(10.4192 -0.0636107 0)
(10.3017 -0.0643232 0)
(10.183 -0.070968 0)
(10.0627 -0.0754046 0)
(9.94346 -0.0719302 0)
(10.158 -0.412225 0)
(10.7264 -0.805382 0)
(10.8638 -0.786506 0)
(10.714 -0.576198 0)
(10.5286 -0.387588 0)
(10.3588 -0.327953 0)
(10.1277 -0.332388 0)
(9.88736 -0.250225 0)
(9.6998 -0.111875 0)
(9.55563 -0.0175201 0)
(9.47093 0.00491367 0)
(9.39661 0.00302561 0)
(9.34868 0.0100583 0)
(9.29509 0.0198709 0)
(9.25859 0.017548 0)
(9.20603 0.0113944 0)
(9.16289 0.0057026 0)
(9.10002 0.0112941 0)
(10.0161 -0.729812 0)
(10.0044 -0.963556 0)
(9.37928 -0.761021 0)
(8.61486 -0.504146 0)
(7.99146 -0.320221 0)
(7.48377 -0.228579 0)
(6.99635 -0.170935 0)
(6.61369 -0.089923 0)
(6.40232 -0.01319 0)
(6.31616 0.0241047 0)
(6.3249 0.0132721 0)
(6.319 -0.00168575 0)
(6.34201 -0.0045232 0)
(6.33049 0.00205057 0)
(6.35671 0.0029329 0)
(6.34473 0.00143644 0)
(6.36928 -0.00257437 0)
(6.34218 0.00218241 0)
(8.41014 -0.36789 0)
(6.15915 -0.346319 0)
(4.41207 -0.133135 0)
(3.36705 -0.0187474 0)
(2.81439 0.0223888 0)
(2.50662 0.0365483 0)
(2.30099 0.0293237 0)
(2.17698 0.0176447 0)
(2.13701 0.0115911 0)
(2.15652 0.00922437 0)
(2.18634 0.00314522 0)
(2.19294 0.00104009 0)
(2.1956 0.00245445 0)
(2.19204 0.00529704 0)
(2.2053 0.00292853 0)
(2.20003 0.00281175 0)
(2.20805 -0.0092202 0)
(2.17394 0.00698341 0)
(0.00857415 -0.0264622 0)
(0.0429463 -0.0398433 0)
(0.0847719 -0.0424315 0)
(0.127678 -0.043847 0)
(0.172285 -0.045274 0)
(0.218736 -0.0468558 0)
(0.267244 -0.0485979 1.31937e-19)
(0.318015 -0.0504835 -1.30966e-19)
(0.37123 -0.0524867 0)
(0.427048 -0.0545766 -1.29038e-19)
(0.485598 -0.0567194 0)
(0.546976 -0.058878 0)
(0.611242 -0.0610122 0)
(0.678411 -0.0630809 1.25233e-19)
(0.748455 -0.0650447 0)
(0.82131 -0.0668679 0)
(0.896865 -0.0685162 -1.22413e-19)
(0.974974 -0.0699562 0)
(1.05546 -0.0711604 0)
(1.1381 -0.0721108 0)
(1.22266 -0.0727928 1.18685e-19)
(1.30884 -0.0731898 0)
(1.39638 -0.0732913 1.16831e-19)
(1.48501 -0.0731016 0)
(1.57439 -0.0726298 0)
(1.66419 -0.0718808 1.14057e-19)
(1.7541 -0.0708596 0)
(1.84389 -0.0695802 -1.12213e-19)
(1.93323 -0.0680706 0)
(2.02178 -0.0663598 1.10373e-19)
(2.10931 -0.0644548 0)
(2.19563 -0.0623636 0)
(2.28049 -0.0601298 0)
(2.3636 -0.0577973 0)
(2.44481 -0.0553677 0)
(2.52406 -0.0528397 -1.04881e-19)
(2.60114 -0.0502558 0)
(2.67586 -0.0476636 2.06127e-19)
(2.74815 -0.0450646 0)
(2.81804 -0.0424475 -2.02511e-19)
(2.8854 -0.039842 0)
(2.95012 -0.0372904 0)
(3.01221 -0.0347957 1.97127e-19)
(3.07174 -0.0323429 0)
(3.12867 -0.0299456 1.93568e-19)
(3.18293 -0.0276347 -1.91799e-19)
(3.2346 -0.0254161 0)
(3.28378 -0.0232742 -1.88282e-19)
(3.33049 -0.0212102 -1.86535e-19)
(3.37469 -0.0192432 0)
(3.41647 -0.0173793 0)
(3.45596 -0.0156059 0)
(3.49322 -0.0139163 0)
(3.52826 -0.0123195 0)
(3.56112 -0.0108205 1.76225e-19)
(3.59195 -0.00941053 0)
(3.62085 -0.00808051 -1.72858e-19)
(3.64784 -0.00683215 0)
(3.67295 -0.00566831 0)
(3.69631 -0.00458253 1.67878e-19)
(3.71801 -0.00356626 0)
(3.73812 -0.00261821 -1.64605e-19)
(3.75666 -0.00173998 0)
(3.77371 -0.000926405 0)
(3.78938 -0.000168761 0)
(3.80372 0.000535961 1.58176e-19)
(3.81678 0.00118613 0)
(3.82859 0.00178363 0)
(3.83926 0.0023365 1.53458e-19)
(3.84884 0.00285142 0)
(3.85738 0.00332819 1.50362e-19)
(3.8649 0.00376537 0)
(3.87148 0.00416745 0)
(3.87716 0.00454266 0)
(3.88201 0.00489393 -1.44288e-19)
(3.88606 0.00521253 0)
(3.88937 0.00547893 0)
(3.89192 0.00567666 -1.39836e-19)
(3.89377 0.00584324 -1.38372e-19)
(3.89496 0.00599123 0)
(3.89552 0.00612023 -1.35473e-19)
(3.89549 0.00623003 0)
(3.8949 0.00632518 -2.65224e-19)
(3.89381 0.00640984 0)
(3.89222 0.00648493 -2.5958e-19)
(3.89016 0.00654985 0)
(3.88762 0.00661478 2.54012e-19)
(3.88466 0.00667366 0)
(3.8813 0.00672861 0)
(3.87757 0.0067796 0)
(3.87347 0.00682337 -2.43101e-19)
(3.86901 0.00685774 0)
(3.86421 0.00688352 2.37756e-19)
(3.85911 0.00690609 0)
(3.85371 0.00692694 -2.32485e-19)
(3.84803 0.0069421 -2.29876e-19)
(3.84207 0.00695032 -2.27285e-19)
(3.83585 0.00695397 0)
(3.82938 0.00695614 0)
(3.82269 0.00695832 0)
(3.81577 0.00695943 0)
(3.80863 0.00695691 0)
(3.80127 0.0069496 0)
(3.7937 0.00693902 0)
(3.78596 0.00692777 0)
(3.77805 0.00691707 2.0475e-19)
(3.76995 0.00690564 2.02331e-19)
(3.76168 0.00689155 0)
(3.75323 0.00687424 0)
(3.74463 0.00685478 0)
(3.73589 0.00683498 1.92819e-19)
(3.72701 0.00681574 0)
(3.71798 0.00679637 0)
(3.70882 0.00677576 0)
(3.69952 0.00675354 0)
(3.69009 0.00673001 -1.81288e-19)
(3.68053 0.0067059 0)
(3.67086 0.00668186 0)
(3.66108 0.00665783 1.74554e-19)
(3.65118 0.0066336 -1.7234e-19)
(3.64116 0.00660884 0)
(3.63104 0.00658334 -1.67955e-19)
(3.6208 0.00655693 0)
(3.61046 0.00652952 1.63629e-19)
(3.60002 0.00650156 0)
(3.58949 0.00647376 0)
(3.57885 0.00644665 0)
(3.56812 0.00642004 0)
(3.5573 0.00639315 0)
(3.54637 0.00636517 -3.01977e-19)
(3.53535 0.00633585 -2.9786e-19)
(3.52423 0.0063058 0)
(3.51303 0.00627595 0)
(3.50175 0.00624696 0)
(3.49037 0.00621868 2.81658e-19)
(3.47891 0.00619014 0)
(3.46735 0.00616047 0)
(3.4557 0.00612945 0)
(3.44397 0.00609775 2.65868e-19)
(3.43215 0.00606625 -2.61983e-19)
(3.42026 0.00603529 0)
(3.40827 0.00600459 0)
(3.3962 0.00597357 -2.50476e-19)
(3.38405 0.00594182 -2.46688e-19)
(3.3718 0.00590918 0)
(3.35948 0.00587589 0)
(3.34707 0.00584255 2.35464e-19)
(3.33458 0.00580956 -2.31769e-19)
(3.32201 0.00577693 0)
(3.30935 0.00574414 0)
(3.29661 0.00571084 -2.20818e-19)
(3.28377 0.00567716 0)
(3.27085 0.00564298 0)
(3.25785 0.00560827 -2.10064e-19)
(3.24475 0.00557363 0)
(3.23156 0.00553953 -2.03001e-19)
(3.21828 0.00550606 0)
(3.2049 0.00547346 0)
(3.19141 0.00544147 0)
(3.17781 0.00540978 1.89123e-19)
(3.16408 0.00537889 0)
(3.15021 0.00534894 0)
(3.1362 0.0053207 0)
(3.12201 0.00529553 0)
(3.10763 0.00527384 0)
(3.09302 0.00525742 0)
(3.07812 0.00524683 1.65599e-19)
(3.06288 0.00524525 1.62316e-19)
(3.04721 0.00525457 0)
(3.03098 0.00528421 0)
(3.01405 0.00533767 0)
(2.99618 0.00542279 -1.49385e-19)
(2.97688 0.00561205 0)
(2.95625 0.00572023 2.861e-19)
(2.93147 0.00655097 -2.79838e-19)
(2.90643 0.00612926 -2.73648e-19)
(2.86796 0.0105071 2.67508e-19)
(2.82848 0.00646892 -2.61494e-19)
(2.77401 0.0321726 2.5555e-19)
(2.60675 0.0112007 0)
(0.00498318 -0.0792006 0)
(0.0416999 -0.126466 0)
(0.0840253 -0.134886 -2.71774e-19)
(0.128166 -0.139234 0)
(0.174037 -0.143704 2.67824e-19)
(0.221846 -0.14875 2.65865e-19)
(0.27187 -0.154387 1.31968e-19)
(0.324368 -0.160558 1.3098e-19)
(0.379562 -0.167182 0)
(0.437643 -0.174159 1.29057e-19)
(0.49877 -0.181379 0)
(0.563071 -0.188721 0)
(0.630632 -0.196062 -2.52437e-19)
(0.701487 -0.203277 -1.25263e-19)
(0.775619 -0.210246 2.48676e-19)
(0.852974 -0.216855 2.46805e-19)
(0.933464 -0.222996 1.22454e-19)
(1.01695 -0.228571 0)
(1.10324 -0.233498 0)
(1.19214 -0.237705 0)
(1.28341 -0.241131 1.18777e-19)
(1.37677 -0.243741 0)
(1.47194 -0.245518 -3.50724e-19)
(1.56865 -0.24645 0)
(1.66658 -0.246528 0)
(1.7654 -0.245771 -1.14136e-19)
(1.86482 -0.244226 0)
(1.96456 -0.24193 1.12301e-19)
(2.06431 -0.238899 2.22801e-19)
(2.16376 -0.235187 -1.1047e-19)
(2.26267 -0.23088 0)
(2.36085 -0.22604 0)
(2.45799 -0.220708 0)
(2.55384 -0.214939 2.13665e-19)
(2.64828 -0.208804 2.11845e-19)
(2.74118 -0.202373 1.05003e-19)
(2.83232 -0.195707 0)
(2.92151 -0.188853 -2.06386e-19)
(3.00868 -0.181852 0)
(3.09382 -0.174758 2.02783e-19)
(3.17679 -0.167633 0)
(3.25743 -0.160516 0)
(3.33576 -0.153424 -1.97416e-19)
(3.4118 -0.146387 0)
(3.4855 -0.139455 -5.81626e-19)
(3.55676 -0.132658 1.92102e-19)
(3.62562 -0.125998 0)
(3.69215 -0.119486 1.88592e-19)
(3.75634 -0.11315 1.86848e-19)
(3.81815 -0.107017 0)
(3.87762 -0.101084 0)
(3.93485 -0.0953427 0)
(3.98987 -0.0898065 0)
(4.04267 -0.0844924 0)
(4.0933 -0.079399 -1.76551e-19)
(4.14184 -0.074513 -3.49738e-19)
(4.18836 -0.0698319 1.73186e-19)
(4.23288 -0.0653641 0)
(4.27545 -0.0611093 -3.39721e-19)
(4.31614 -0.0570549 1.68213e-19)
(4.35502 -0.0531918 0)
(4.39215 -0.0495208 1.64933e-19)
(4.42755 -0.0460406 0)
(4.46129 -0.0427401 0)
(4.49346 -0.0396073 3.20192e-19)
(4.52411 -0.0366396 -1.58501e-19)
(4.55326 -0.0338364 3.13836e-19)
(4.58097 -0.0311893 -3.10687e-19)
(4.60732 -0.0286846 -1.53778e-19)
(4.63238 -0.0263144 0)
(4.65616 -0.0240785 -1.50678e-19)
(4.67872 -0.0219742 0)
(4.70011 -0.0199906 0)
(4.72039 -0.0181158 0)
(4.73962 -0.0163469 -1.44598e-19)
(4.7578 -0.0146913 0)
(4.77497 -0.0131572 -2.8323e-19)
(4.7912 -0.0117461 4.20416e-19)
(4.80657 -0.0104272 1.38672e-19)
(4.82107 -0.00918758 0)
(4.83475 -0.00802554 1.35768e-19)
(4.84764 -0.00693751 0)
(4.85978 -0.00591464 2.65804e-19)
(4.87122 -0.0049499 0)
(4.88199 -0.00404378 2.60149e-19)
(4.89211 -0.00320072 -5.14699e-19)
(4.90161 -0.00242591 -2.5457e-19)
(4.9105 -0.0017049 0)
(4.91885 -0.00102749 0)
(4.92666 -0.000393386 0)
(4.93395 0.000198587 2.43638e-19)
(4.94075 0.000749609 0)
(4.9471 0.00126254 -2.38283e-19)
(4.95301 0.00174426 0)
(4.95852 0.0021972 6.99001e-19)
(4.96363 0.00261707 2.30387e-19)
(4.96835 0.00300397 2.27791e-19)
(4.97273 0.00336329 0)
(4.97677 0.00369995 0)
(4.9805 0.00401641 0)
(4.98393 0.00431244 0)
(4.98707 0.00458634 0)
(4.98993 0.00483767 4.25165e-19)
(4.99253 0.00506914 4.20217e-19)
(4.99489 0.00528487 0)
(4.99703 0.00548734 -2.05212e-19)
(4.99895 0.00567604 -2.02788e-19)
(5.00065 0.00584914 0)
(5.00215 0.00600624 -3.95978e-19)
(5.00347 0.00614932 0)
(5.00461 0.00628154 1.93255e-19)
(5.00558 0.006405 0)
(5.0064 0.00651956 0)
(5.00706 0.00662413 -3.72554e-19)
(5.00757 0.00671842 0)
(5.00795 0.00680327 1.81704e-19)
(5.0082 0.00688031 0)
(5.00832 0.00695113 0)
(5.00833 0.00701627 1.74955e-19)
(5.00822 0.00707576 1.72738e-19)
(5.00801 0.0071294 0)
(5.00769 0.0071769 -1.68344e-19)
(5.00727 0.00721823 0)
(5.00676 0.00725374 1.64009e-19)
(5.00615 0.00728443 3.23728e-19)
(5.00547 0.00731186 0)
(5.0047 0.00733725 0)
(5.00386 0.00736061 0)
(5.00293 0.00738095 0)
(5.00193 0.00739711 3.02694e-19)
(5.00085 0.00740866 8.95705e-19)
(4.99971 0.00741656 0)
(4.9985 0.00742262 0)
(4.99722 0.00742836 0)
(4.99589 0.00743405 -2.82336e-19)
(4.99449 0.00743846 0)
(4.99302 0.00743998 0)
(4.99149 0.00743794 5.40865e-19)
(4.98989 0.00743326 2.66515e-19)
(4.98824 0.00742765 2.62625e-19)
(4.98654 0.00742223 0)
(4.98477 0.00741691 0)
(4.98295 0.00741082 2.51096e-19)
(4.98106 0.00740307 -2.47298e-19)
(4.97912 0.0073932 0)
(4.97711 0.00738159 0)
(4.97505 0.0073696 -2.36056e-19)
(4.97293 0.00735844 6.97058e-19)
(4.97075 0.0073483 0)
(4.96851 0.00733857 0)
(4.9662 0.0073287 2.21382e-19)
(4.96382 0.00731862 0)
(4.96138 0.00730843 4.28352e-19)
(4.95886 0.00729864 -2.10605e-19)
(4.95627 0.00729032 0)
(4.95359 0.00728475 2.0353e-19)
(4.95084 0.00728322 4.00044e-19)
(4.94799 0.00728665 0)
(4.94504 0.00729623 0)
(4.94197 0.00731239 -1.89624e-19)
(4.93876 0.00733703 0)
(4.93541 0.0073731 3.65582e-19)
(4.93187 0.00742369 0)
(4.92813 0.00749417 0)
(4.92414 0.00759088 0)
(4.91984 0.00772227 0)
(4.91517 0.00789667 -1.66052e-19)
(4.91002 0.00813026 -1.62762e-19)
(4.90429 0.00844151 0)
(4.89775 0.00885568 0)
(4.89028 0.00944883 0)
(4.88143 0.0101241 1.49802e-19)
(4.87067 0.0115866 0)
(4.85827 0.0119295 -2.86904e-19)
(4.83952 0.0177077 2.80626e-19)
(4.82298 0.0122825 2.7442e-19)
(4.78474 0.0387122 2.6822e-19)
(4.75584 0.0086651 2.62229e-19)
(4.69795 0.104392 2.5612e-19)
(4.57446 0.0492904 0)
(0.000426668 -0.121455 0)
(0.0340303 -0.208391 0)
(0.0742171 -0.223196 2.71768e-19)
(0.11631 -0.230441 2.6982e-19)
(0.160196 -0.237992 -2.67824e-19)
(0.206174 -0.246641 -2.65865e-19)
(0.254554 -0.256385 3.03631e-23)
(0.305633 -0.267111 0)
(0.359675 -0.278667 0)
(0.416907 -0.290869 0)
(0.477511 -0.303516 0)
(0.541618 -0.316389 0)
(0.609301 -0.32927 7.57409e-19)
(0.680581 -0.341936 0)
(0.755426 -0.354174 -2.48681e-19)
(0.83376 -0.365781 -2.46811e-19)
(0.91546 -0.376567 0)
(1.00035 -0.386362 0)
(1.08821 -0.395034 0)
(1.17881 -0.40247 0)
(1.27185 -0.408572 -2.3753e-19)
(1.36701 -0.413266 0)
(1.46398 -0.416528 2.33842e-19)
(1.5625 -0.418357 0)
(1.6622 -0.418755 0)
(1.76267 -0.417751 0)
(1.8636 -0.415409 4.53092e-19)
(1.9648 -0.411792 0)
(2.06595 -0.406972 -2.22826e-19)
(2.16662 -0.401055 4.42095e-19)
(2.26656 -0.394142 0)
(2.36564 -0.386312 0)
(2.46366 -0.377664 0)
(2.56028 -0.36833 -2.13699e-19)
(2.65531 -0.358418 -2.11882e-19)
(2.74867 -0.348001 0)
(2.84024 -0.33717 0)
(2.92983 -0.326035 4.12968e-19)
(3.01733 -0.314687 4.09358e-19)
(3.10269 -0.30319 -4.05758e-19)
(3.18583 -0.291603 0)
(3.26669 -0.280003 0)
(3.34523 -0.26846 0)
(3.42144 -0.257022 0)
(3.49528 -0.245724 3.87871e-19)
(3.56673 -0.234599 3.84384e-19)
(3.63584 -0.223691 -3.80866e-19)
(3.70262 -0.213039 0)
(3.76705 -0.202664 0)
(3.82915 -0.192573 0)
(3.88898 -0.182776 0)
(3.94661 -0.173296 3.63499e-19)
(4.00205 -0.164154 0)
(4.0553 -0.155346 0)
(4.10644 -0.146861 3.53273e-19)
(4.15555 -0.138701 3.49879e-19)
(4.20268 -0.130881 0)
(4.24783 -0.123402 -6.86408e-19)
(4.29108 -0.116243 3.39869e-19)
(4.33249 -0.109392 -3.36568e-19)
(4.37213 -0.102851 0)
(4.41005 -0.0966242 0)
(4.44628 -0.0906988 0)
(4.48089 -0.0850536 0)
(4.51395 -0.0796797 -3.20348e-19)
(4.5455 -0.0745789 -6.34338e-19)
(4.57559 -0.0697447 -3.13993e-19)
(4.60428 -0.0651582 3.10845e-19)
(4.63162 -0.0608033 0)
(4.65768 -0.0566768 -6.09226e-19)
(4.68248 -0.0527784 -6.03045e-19)
(4.70607 -0.0490965 -5.96904e-19)
(4.72852 -0.0456125 5.90802e-19)
(4.74987 -0.0423157 0)
(4.77017 -0.0392062 8.68071e-19)
(4.78943 -0.0362812 0)
(4.80771 -0.0335232 -2.83396e-19)
(4.82508 -0.0309054 -2.80438e-19)
(4.84157 -0.0284289 0)
(4.8572 -0.0260938 0)
(4.87202 -0.0238964 -5.43394e-19)
(4.88605 -0.0218259 0)
(4.89935 -0.0198709 -5.31929e-19)
(4.91195 -0.0180255 0)
(4.92388 -0.0162913 5.20617e-19)
(4.93513 -0.0146701 1.03004e-18)
(4.94577 -0.0131663 0)
(4.95583 -0.0117573 0)
(4.96535 -0.0104332 0)
(4.97435 -0.00919216 4.93e-19)
(4.98283 -0.00803513 0)
(4.99083 -0.00695323 4.82213e-19)
(4.99838 -0.00593518 0)
(5.00551 -0.00497725 0)
(5.01223 -0.00407931 -9.32615e-19)
(5.01855 -0.00324244 0)
(5.0245 -0.00246341 -4.55884e-19)
(5.03011 -0.00173456 0)
(5.0354 -0.00105001 -4.45602e-19)
(5.04038 -0.00040822 0)
(5.04507 0.000190063 0)
(5.04947 0.000745183 0)
(5.0536 0.0012606 -1.27638e-18)
(5.05748 0.00174172 -4.2051e-19)
(5.06114 0.00219228 0)
(5.06459 0.00261289 0)
(5.06783 0.00300267 0)
(5.07086 0.00336177 0)
(5.0737 0.00369283 3.96262e-19)
(5.07638 0.00400003 -7.83019e-19)
(5.07889 0.00428662 -3.86792e-19)
(5.08125 0.00455341 7.64209e-19)
(5.08348 0.00479979 7.54899e-19)
(5.08556 0.00502562 3.72828e-19)
(5.08751 0.00523213 0)
(5.08934 0.00542161 7.27348e-19)
(5.09106 0.00559654 0)
(5.09268 0.00575861 -7.09288e-19)
(5.09421 0.00590827 -3.50176e-19)
(5.09564 0.00604573 0)
(5.09698 0.00617093 6.82652e-19)
(5.09824 0.00628389 3.36947e-19)
(5.09943 0.00638532 0)
(5.10054 0.00647668 3.28271e-19)
(5.10159 0.00655993 -9.71939e-19)
(5.10258 0.00663679 0)
(5.10352 0.00670791 0)
(5.10441 0.0067726 0)
(5.10525 0.00682984 0)
(5.10603 0.00687925 -6.05867e-19)
(5.10678 0.00692159 -5.97617e-19)
(5.10748 0.00695872 0)
(5.10815 0.00699256 0)
(5.10879 0.00702417 0)
(5.1094 0.00705325 0)
(5.10997 0.00707834 0)
(5.11052 0.00709808 0)
(5.11103 0.0071127 -5.41319e-19)
(5.11153 0.00712404 -2.2985e-24)
(5.112 0.00713401 0)
(5.11245 0.00714328 0)
(5.11288 0.00715139 -5.10263e-19)
(5.11329 0.00715736 0)
(5.11368 0.00716023 4.95029e-19)
(5.11406 0.00715982 4.8748e-19)
(5.11441 0.0071572 0)
(5.11475 0.00715452 0)
(5.11507 0.0071532 -4.65119e-19)
(5.11539 0.00715294 -9.15508e-19)
(5.11568 0.00715293 0)
(5.11596 0.00715295 0)
(5.11621 0.00715287 0)
(5.11645 0.00715279 -4.28746e-19)
(5.11666 0.00715431 4.21602e-19)
(5.11685 0.00715941 0)
(5.11701 0.00716932 8.14878e-19)
(5.11714 0.00718631 4.00419e-19)
(5.11723 0.00721185 -7.86887e-19)
(5.11728 0.00724775 0)
(5.11726 0.0072966 0)
(5.11718 0.00736136 -7.45508e-19)
(5.11699 0.00744768 -3.65939e-19)
(5.1167 0.00756201 0)
(5.11626 0.00771235 0)
(5.11564 0.00791052 0)
(5.11478 0.00817164 0)
(5.11363 0.00851134 -6.64869e-19)
(5.11206 0.00895634 0)
(5.11002 0.00954779 0)
(5.10723 0.0103127 0)
(5.10375 0.0113901 0)
(5.09859 0.0127043 0)
(5.09297 0.0148929 0)
(5.0827 0.0169446 -5.74373e-19)
(5.07396 0.0226659 0)
(5.05353 0.0240887 0)
(5.03673 0.0451883 -1.07404e-18)
(5.00554 0.0381739 5.24784e-19)
(4.96249 0.116244 -5.12929e-19)
(4.92921 0.109431 5.00826e-19)
(-0.00586891 -0.148303 0)
(0.0229395 -0.283926 -5.47558e-19)
(0.0599221 -0.306734 0)
(0.098796 -0.317256 -2.69817e-19)
(0.139571 -0.328269 0)
(0.182712 -0.341028 0)
(0.228593 -0.355513 2.64031e-19)
(0.277576 -0.371532 0)
(0.329986 -0.388832 0)
(0.386095 -0.40712 0)
(0.44611 -0.426078 0)
(0.510172 -0.445368 0)
(0.578352 -0.464649 -1.01006e-18)
(0.650649 -0.48358 -5.01335e-19)
(0.726994 -0.50183 4.97593e-19)
(0.807271 -0.519094 0)
(0.891308 -0.535096 0)
(0.978845 -0.549591 0)
(1.06957 -0.562377 0)
(1.16321 -0.573299 0)
(1.25945 -0.582231 -4.75336e-19)
(1.35788 -0.589082 -4.71648e-19)
(1.4581 -0.593826 4.67963e-19)
(1.55975 -0.596472 -4.64281e-19)
(1.66249 -0.597031 0)
(1.7659 -0.595567 0)
(1.86961 -0.592187 -4.53094e-19)
(1.97334 -0.58699 0)
(2.07673 -0.580092 0)
(2.17943 -0.57164 -4.42097e-19)
(2.28127 -0.561777 -4.38577e-19)
(2.38203 -0.550645 -4.34917e-19)
(2.48135 -0.538409 0)
(2.579 -0.525225 0)
(2.67494 -0.511217 4.23966e-19)
(2.7691 -0.496519 0)
(2.86119 -0.481295 0)
(2.95103 -0.465679 -4.12973e-19)
(3.03866 -0.449756 4.09552e-19)
(3.1241 -0.433617 -4.05941e-19)
(3.20719 -0.41739 0)
(3.2878 -0.401185 0)
(3.36596 -0.38506 -7.90198e-19)
(3.44178 -0.369053 0)
(3.51521 -0.35324 -7.75978e-19)
(3.58616 -0.337704 -1.1533e-18)
(3.65464 -0.322487 1.14274e-18)
(3.72077 -0.307601 -7.54851e-19)
(3.78459 -0.293072 0)
(3.84607 -0.278943 0)
(3.90523 -0.265248 -7.33992e-19)
(3.96214 -0.251994 -3.63512e-19)
(4.01688 -0.239174 0)
(4.06949 -0.226795 0)
(4.11999 -0.214876 -3.53288e-19)
(4.16844 -0.203424 -6.99887e-19)
(4.21489 -0.192431 0)
(4.25942 -0.18188 6.8644e-19)
(4.30209 -0.171765 -6.79848e-19)
(4.34294 -0.162089 6.73242e-19)
(4.38201 -0.15285 0)
(4.41936 -0.144031 0)
(4.45508 -0.135614 0)
(4.48921 -0.127587 0)
(4.5218 -0.119946 0)
(4.55289 -0.112682 6.34377e-19)
(4.58255 -0.105776 0)
(4.61084 -0.0992079 0)
(4.63781 -0.0929701 0)
(4.6635 -0.0870573 1.21855e-18)
(4.68795 -0.0814571 6.03088e-19)
(4.71123 -0.0761489 5.96947e-19)
(4.73338 -0.0711159 -1.18171e-18)
(4.75445 -0.0663511 5.84797e-19)
(4.77446 -0.0618497 -5.7876e-19)
(4.79347 -0.0575983 0)
(4.81153 -0.0535761 5.66831e-19)
(4.82868 -0.0497678 0)
(4.84497 -0.04617 0)
(4.86041 -0.0427785 0)
(4.87504 -0.0395833 1.08689e-18)
(4.88891 -0.0365715 -5.37695e-19)
(4.90206 -0.033734 -5.31988e-19)
(4.91451 -0.0310662 -1.05261e-18)
(4.92629 -0.0285614 -1.56201e-18)
(4.93742 -0.0262068 -5.15068e-19)
(4.94795 -0.0239816 0)
(4.95792 -0.0218848 -1.00797e-18)
(4.96735 -0.0199158 0)
(4.97625 -0.0180704 -1.47916e-18)
(4.98465 -0.016344 0)
(4.99258 -0.0147231 -1.4468e-18)