/*--------------------------------*- C++ -*----------------------------------*\
| =========                 |                                                 |
| \\      /  F ield         | OpenFOAM: The Open Source CFD Toolbox           |
|  \\    /   O peration     | Version:  2.1.x                                 |
|   \\  /    A nd           | Web:      www.OpenFOAM.org                      |
|    \\/     M anipulation  |                                                 |
\*---------------------------------------------------------------------------*/
FoamFile
{
    version     2.0;
    format      ascii;
    class       volVectorField;
    location    "0.002";
    object      U_0;
}
// * * * * * * * * * * * * * * * * * * * * * * * * * * * * * * * * * * * * * //

dimensions      [0 1 -1 0 0 0 0];

internalField   nonuniform List<vector> 
12225
(
(6.97931 0.386998 0)
(4.41553 0.180351 0)
(3.06205 0.0233573 0)
(2.49034 -0.0189903 0)
(2.1586 -0.00719929 0)
(2.20399 -0.00759328 0)
(2.12708 -0.0187304 0)
(2.1284 0.0185556 0)
(2.02316 0.00120653 0)
(2.44139 -0.0544081 0)
(2.50505 -0.00702368 0)
(2.36735 0.0609399 0)
(2.55284 -0.0497832 0)
(2.99244 -0.0961598 0)
(3.59647 -0.0181942 0)
(3.01815 -0.00286457 0)
(4.26786 -0.0684516 0)
(3.3514 -0.0794886 0)
(9.80535 0.95904 0)
(9.07341 0.827669 0)
(7.87166 0.429517 0)
(7.05208 0.191735 0)
(6.14321 0.100325 0)
(6.34227 0.0111967 0)
(5.82634 -0.01825 0)
(5.67617 0.0446527 0)
(5.65952 -0.0401328 0)
(6.43823 -0.183353 0)
(6.07925 -0.00010049 0)
(5.97017 0.0472418 0)
(6.81532 -0.167988 0)
(7.09443 -0.380494 0)
(7.88983 0.00778454 0)
(7.42926 -0.0775842 0)
(8.23537 -0.361835 0)
(8.88757 -1.0003 0)
(10.2533 0.793551 0)
(10.8268 0.852815 0)
(10.4503 0.554054 0)
(10.2387 0.36565 0)
(9.12591 0.219332 0)
(9.61251 0.0738206 0)
(9.1239 0.129478 0)
(8.6311 0.145359 0)
(8.66093 -0.17747 0)
(9.616 -0.347719 0)
(8.87974 0.126006 0)
(8.82347 0.0181109 0)
(9.63654 -0.573452 0)
(10.0714 -0.690118 0)
(10.4468 -0.151053 0)
(10.5355 0.0954194 0)
(10.9304 -0.68741 0)
(11.6882 -1.50214 0)
(10.2882 0.550947 0)
(10.508 0.94973 0)
(11.0662 0.571487 0)
(11.0286 0.442121 0)
(10.4982 0.340058 0)
(11.2797 -0.0616899 0)
(10.9961 0.16767 0)
(10.3282 0.340271 0)
(11.058 -0.262174 0)
(11.459 -0.507491 0)
(10.2283 0.283134 0)
(10.6981 0.0626368 0)
(11.6166 -0.781337 0)
(11.5871 -0.928535 0)
(11.2097 -0.114382 0)
(11.485 -0.0870941 0)
(12.3277 -1.03419 0)
(12.0654 -1.4292 0)
(9.84139 0.502545 0)
(10.4929 0.603575 0)
(11.0667 0.523892 0)
(11.0237 0.483141 0)
(11.3253 0.127531 0)
(11.3405 -0.108258 0)
(10.9153 0.42899 0)
(11.4017 0.202381 0)
(11.8422 -0.546001 0)
(10.9362 -0.171321 0)
(10.787 0.482546 0)
(12.18 -0.292419 0)
(12.1426 -1.05957 0)
(10.7337 -0.561346 0)
(10.6518 0.0923902 0)
(12.2219 -0.354647 0)
(12.6622 -1.09123 0)
(11.7579 -1.25344 0)
(9.98135 0.316857 0)
(10.2673 0.738174 0)
(10.5667 0.507471 0)
(10.9608 0.247912 0)
(11.1724 0.337907 0)
(11.131 0.0169465 0)
(11.2248 -0.0298568 0)
(11.4587 0.137512 0)
(11.5 0.0516726 0)
(11.232 -0.329828 0)
(11.4334 -0.350241 0)
(11.8883 -0.188722 0)
(11.6226 -0.235904 0)
(11.1269 -0.431661 0)
(11.5759 -0.769947 0)
(12.0938 -1.14811 0)
(11.7596 -1.0023 0)
(11.6856 -0.950044 0)
(9.74027 0.224305 0)
(9.99028 0.333859 0)
(10.4868 0.360052 0)
(10.5658 0.280287 0)
(10.7234 0.0123756 0)
(10.9428 -0.114059 0)
(10.7741 0.19714 0)
(10.8027 0.126663 0)
(11.2754 -0.42468 0)
(11.258 -0.271147 0)
(11.0517 0.219589 0)
(11.2835 -0.215847 0)
(11.4955 -0.93687 0)
(11.3231 -0.749578 0)
(11.3288 -0.238825 0)
(11.4499 -0.363593 0)
(11.4801 -0.997224 0)
(11.7223 -1.75844 0)
(10.3216 0.27443 0)
(10.2845 0.471815 0)
(10.3493 0.413587 0)
(10.4577 0.170506 0)
(10.6346 0.208898 0)
(10.6548 -0.00414735 0)
(10.7267 -0.108147 0)
(10.9632 0.000321723 0)
(11.1021 -0.0831066 0)
(10.9933 -0.314798 0)
(11.0959 -0.354622 0)
(11.3966 -0.239742 0)
(11.3785 -0.310908 0)
(10.9986 -0.537204 0)
(10.9783 -0.717113 0)
(11.4372 -0.965989 0)
(11.7326 -1.24551 0)
(11.5855 -1.17024 0)
(9.96312 0.207509 0)
(10.1428 0.322741 0)
(10.4098 0.300833 0)
(10.4668 0.211555 0)
(10.545 0.0155553 0)
(10.7766 -0.114541 0)
(10.7843 -0.0194416 0)
(10.7111 -0.0527021 0)
(10.9589 -0.329938 0)
(11.092 -0.340136 0)
(10.9906 -0.065354 0)
(10.9874 -0.194999 0)
(11.1934 -0.741492 0)
(11.1923 -0.764811 0)
(11.1268 -0.409103 0)
(11.2868 -0.703533 0)
(11.5125 -1.2593 0)
(11.3894 -1.39325 0)
(10.0536 0.141253 0)
(10.0866 0.307091 0)
(10.2625 0.330982 0)
(10.4412 0.146902 0)
(10.692 0.112558 0)
(10.7788 -0.0319104 0)
(10.746 -0.19624 0)
(10.7811 -0.136054 0)
(10.8053 -0.113538 0)
(10.7333 -0.284465 0)
(10.8034 -0.395751 0)
(11.0341 -0.359778 0)
(11.1057 -0.349506 0)
(10.8303 -0.506315 0)
(10.8366 -0.861895 0)
(11.2641 -1.19144 0)
(11.2181 -1.2196 0)
(10.7637 -0.951391 0)
(9.84235 0.318507 0)
(10.006 0.213445 0)
(10.2694 0.10717 0)
(10.362 0.0451153 0)
(10.4432 -0.0623968 0)
(10.5906 -0.141717 0)
(10.6275 -0.0805188 0)
(10.5273 -0.115101 0)
(10.593 -0.276964 0)
(10.8259 -0.34009 0)
(10.8829 -0.254477 0)
(10.7698 -0.311817 0)
(10.814 -0.629249 0)
(10.988 -0.812959 0)
(11.0448 -0.706581 0)
(10.8883 -0.697201 0)
(10.7304 -0.928662 0)
(11.0109 -1.58984 0)
(10.0122 0.0563708 0)
(10.1516 0.0496789 0)
(10.199 0.157974 0)
(10.1433 0.114798 0)
(10.2414 0.0432512 0)
(10.3978 -0.0709416 0)
(10.4513 -0.212486 0)
(10.4957 -0.268272 0)
(10.5736 -0.228643 0)
(10.59 -0.302034 0)
(10.5885 -0.434198 0)
(10.669 -0.442278 0)
(10.7006 -0.449967 0)
(10.5484 -0.626901 0)
(10.4531 -0.845999 0)
(10.6556 -0.987277 0)
(10.9727 -1.32123 0)
(10.8888 -1.88717 0)
(10.1648 0.0746208 0)
(10.0776 0.111188 0)
(10.105 0.0937977 0)
(10.1244 -0.00857187 0)
(10.2444 -0.128998 0)
(10.4004 -0.241577 0)
(10.457 -0.255886 0)
(10.4092 -0.244223 0)
(10.3809 -0.286961 0)
(10.4966 -0.335238 0)
(10.6031 -0.316077 0)
(10.5324 -0.377889 0)
(10.473 -0.57778 0)
(10.5863 -0.725132 0)
(10.6782 -0.795178 0)
(10.643 -1.06712 0)
(10.6084 -1.16245 0)
(10.6174 -0.509762 0)
(10.0917 -0.0455757 0)
(10.2333 0.0918257 0)
(10.339 0.112034 0)
(10.3135 0.0350709 0)
(10.3281 -0.0698004 0)
(10.3779 -0.178171 0)
(10.3334 -0.250587 0)
(10.2475 -0.311526 0)
(10.2479 -0.314933 0)
(10.3241 -0.325426 0)
(10.3681 -0.406345 0)
(10.3832 -0.505003 0)
(10.4094 -0.566326 0)
(10.3909 -0.714387 0)
(10.3789 -0.924272 0)
(10.448 -1.00534 0)
(10.4452 -1.21086 0)
(10.4416 -1.94024 0)
(9.81305 -0.0470006 0)
(10.0229 -0.0985185 0)
(10.2073 -0.0273624 0)
(10.2596 -0.0205435 0)
(10.2965 -0.0817629 0)
(10.3329 -0.182939 0)
(10.277 -0.249717 0)
(10.1894 -0.289951 0)
(10.1861 -0.311184 0)
(10.304 -0.355057 0)
(10.4423 -0.403585 0)
(10.4832 -0.478074 0)
(10.4693 -0.606951 0)
(10.5031 -0.761168 0)
(10.5516 -0.881388 0)
(10.5428 -1.04483 0)
(10.5267 -1.17753 0)
(10.4525 -1.12622 0)
(9.81469 -0.118753 0)
(9.86492 -0.257893 0)
(9.92695 -0.155167 0)
(9.96191 -0.0641791 0)
(10.071 -0.0400271 0)
(10.1936 -0.0941983 0)
(10.2022 -0.188276 0)
(10.1518 -0.312522 0)
(10.1753 -0.413002 0)
(10.2901 -0.487121 0)
(10.3808 -0.552121 0)
(10.3795 -0.629525 0)
(10.3477 -0.694891 0)
(10.3255 -0.77082 0)
(10.3037 -0.872785 0)
(10.282 -0.98234 0)
(10.2375 -1.0936 0)
(10.1899 -1.24421 0)
(9.85364 -0.0828407 0)
(9.85702 -0.172712 0)
(9.81839 -0.201061 0)
(9.75287 -0.20313 0)
(9.864 -0.218457 0)
(10.0563 -0.27665 0)
(10.1316 -0.350804 0)
(10.1034 -0.423308 0)
(10.0971 -0.459465 0)
(10.1434 -0.481209 0)
(10.1582 -0.506881 0)
(10.0951 -0.555509 0)
(10.0179 -0.624031 0)
(9.98307 -0.719827 0)
(9.98355 -0.823554 0)
(9.9817 -0.933396 0)
(9.9578 -1.04229 0)
(9.91713 -1.1444 0)
(10.1234 0.133462 0)
(10.1458 -0.0562646 0)
(10.1183 -0.149241 0)
(10.0903 -0.221304 0)
(10.1913 -0.291918 0)
(10.3195 -0.357323 0)
(10.3015 -0.385776 0)
(10.1809 -0.393483 0)
(10.1056 -0.386952 0)
(10.1095 -0.394863 0)
(10.1063 -0.427711 0)
(10.0495 -0.495629 0)
(9.99107 -0.582698 0)
(9.97065 -0.685287 0)
(9.97414 -0.78812 0)
(9.96809 -0.888854 0)
(9.93847 -0.977679 0)
(9.89096 -1.05667 0)
(10.2897 0.0946872 0)
(10.3414 -0.034065 0)
(10.3642 -0.167875 0)
(10.2917 -0.294518 0)
(10.2984 -0.36066 0)
(10.3731 -0.36445 0)
(10.3457 -0.319525 0)
(10.2266 -0.281877 0)
(10.1546 -0.275917 0)
(10.1591 -0.314404 0)
(10.1469 -0.383498 0)
(10.0706 -0.477186 0)
(9.98586 -0.577541 0)
(9.93982 -0.679937 0)
(9.92241 -0.769708 0)
(9.89866 -0.848024 0)
(9.85421 -0.911506 0)
(9.79716 -0.965741 0)
(9.91542 0.0638073 0)
(9.97891 -0.0579276 0)
(10.0673 -0.106947 0)
(10.0164 -0.212866 0)
(10.0174 -0.303428 0)
(10.0795 -0.34111 0)
(10.0654 -0.316077 0)
(10.012 -0.267463 0)
(10.0475 -0.227271 0)
(10.1691 -0.226666 0)
(10.2583 -0.26762 0)
(10.2528 -0.348077 0)
(10.2023 -0.44796 0)
(10.1605 -0.556212 0)
(10.1265 -0.653471 0)
(10.0729 -0.736969 0)
(9.99312 -0.801243 0)
(9.9002 -0.851463 0)
(10.0248 -0.00777787 0)
(10.0879 -0.0847822 0)
(10.1832 -0.196803 0)
(10.1594 -0.287167 0)
(10.1815 -0.324975 0)
(10.236 -0.344141 0)
(10.1957 -0.357604 0)
(10.1105 -0.375843 0)
(10.1207 -0.391255 0)
(10.2264 -0.410261 0)
(10.3068 -0.434031 0)
(10.2975 -0.467127 0)
(10.2442 -0.5017 0)
(10.1994 -0.539742 0)
(10.1609 -0.575659 0)
(10.1015 -0.612482 0)
(10.0138 -0.645642 0)
(9.9141 -0.677259 0)
(10.0273 -0.150864 0)
(10.1198 -0.172269 0)
(10.1972 -0.251545 0)
(10.2025 -0.266198 0)
(10.2577 -0.261448 0)
(10.3583 -0.277644 0)
(10.3671 -0.303289 0)
(10.2955 -0.324132 0)
(10.2664 -0.329113 0)
(10.2932 -0.33215 0)
(10.279 -0.343906 0)
(10.1845 -0.370436 0)
(10.073 -0.402793 0)
(10.0008 -0.440083 0)
(9.95955 -0.476046 0)
(9.913 -0.511753 0)
(9.84851 -0.542389 0)
(9.77728 -0.568335 0)
(10.2709 -0.103881 0)
(10.2892 -0.225853 0)
(10.3765 -0.286809 0)
(10.4971 -0.308713 0)
(10.659 -0.319246 0)
(10.7948 -0.354188 0)
(10.7833 -0.382209 0)
(10.6599 -0.374873 0)
(10.5619 -0.338511 0)
(10.5198 -0.308266 0)
(10.4538 -0.301651 0)
(10.3312 -0.320041 0)
(10.2063 -0.350341 0)
(10.1246 -0.387509 0)
(10.0719 -0.42216 0)
(10.0115 -0.454073 0)
(9.93311 -0.477501 0)
(9.84667 -0.493487 0)
(10.1428 -0.0847276 0)
(10.1711 -0.286698 0)
(10.307 -0.445276 0)
(10.489 -0.473303 0)
(10.6371 -0.397758 0)
(10.7008 -0.339123 0)
(10.637 -0.301533 0)
(10.5142 -0.24443 0)
(10.452 -0.175667 0)
(10.4582 -0.14269 0)
(10.4437 -0.154651 0)
(10.3682 -0.193052 0)
(10.2753 -0.236448 0)
(10.207 -0.278854 0)
(10.1519 -0.314422 0)
(10.0809 -0.344424 0)
(9.99009 -0.363829 0)
(9.89153 -0.374756 0)
(10.2048 -0.172838 0)
(10.4019 -0.320031 0)
(10.5509 -0.46487 0)
(10.6458 -0.456226 0)
(10.7102 -0.35004 0)
(10.7462 -0.306348 0)
(10.737 -0.315393 0)
(10.7046 -0.296418 0)
(10.6942 -0.237414 0)
(10.7005 -0.193641 0)
(10.6686 -0.190103 0)
(10.5765 -0.209256 0)
(10.4628 -0.228989 0)
(10.3662 -0.247458 0)
(10.2789 -0.265453 0)
(10.1793 -0.282918 0)
(10.0658 -0.291632 0)
(9.94866 -0.292794 0)
(9.73918 -0.22195 0)
(10.0601 -0.465828 0)
(10.4537 -0.61474 0)
(10.7502 -0.556102 0)
(10.8856 -0.413647 0)
(10.9069 -0.357217 0)
(10.877 -0.350212 0)
(10.84 -0.273649 0)
(10.8281 -0.155804 0)
(10.8273 -0.0912802 0)
(10.7956 -0.0880612 0)
(10.718 -0.106423 0)
(10.6178 -0.118751 0)
(10.5194 -0.126755 0)
(10.4155 -0.139073 0)
(10.2961 -0.153381 0)
(10.1637 -0.160599 0)
(10.0277 -0.160776 0)
(9.91103 -0.281798 0)
(10.4362 -0.633913 0)
(10.8423 -0.730199 0)
(11.0119 -0.573555 0)
(11.0496 -0.37989 0)
(11.0472 -0.329504 0)
(11.0142 -0.368414 0)
(10.9589 -0.315138 0)
(10.8906 -0.186354 0)
(10.818 -0.102168 0)
(10.7358 -0.0859464 0)
(10.6249 -0.0867317 0)
(10.5001 -0.0762064 0)
(10.3792 -0.0636264 0)
(10.2612 -0.0646844 0)
(10.1423 -0.071239 0)
(10.0224 -0.0753024 0)
(9.9036 -0.0715454 0)
(10.1587 -0.397631 0)
(10.7089 -0.810748 0)
(10.8358 -0.79147 0)
(10.6853 -0.576387 0)
(10.5039 -0.388061 0)
(10.3337 -0.33167 0)
(10.0991 -0.334712 0)
(9.85759 -0.247526 0)
(9.67018 -0.107263 0)
(9.52745 -0.0144385 0)
(9.44438 0.00588496 0)
(9.37089 0.00336671 0)
(9.3232 0.0104255 0)
(9.26947 0.0199485 0)
(9.23253 0.0173467 0)
(9.17951 0.0111914 0)
(9.13589 0.00576545 0)
(9.07275 0.0116221 0)
(10.0081 -0.713224 0)
(9.98887 -0.96319 0)
(9.35644 -0.763106 0)
(8.59117 -0.505105 0)
(7.9683 -0.321641 0)
(7.45646 -0.230819 0)
(6.96489 -0.171734 0)
(6.58343 -0.0884153 0)
(6.3759 -0.0109883 0)
(6.29384 0.0249067 0)
(6.30464 0.0128739 0)
(6.29916 -0.0019383 0)
(6.32232 -0.00433223 0)
(6.31068 0.00238273 0)
(6.33719 0.00317761 0)
(6.32509 0.00165516 0)
(6.34991 -0.00218601 0)
(6.32286 0.00270288 0)
(8.40462 -0.349531 0)
(6.14199 -0.347014 0)
(4.39193 -0.134111 0)
(3.34461 -0.0192709 0)
(2.79001 0.0222604 0)
(2.47923 0.0362826 0)
(2.27108 0.0289151 0)
(2.1473 0.017504 0)
(2.10932 0.0120218 0)
(2.13059 0.00919906 0)
(2.16065 0.00302293 0)
(2.16686 0.00102529 0)
(2.16946 0.00248202 0)
(2.16612 0.00529483 0)
(2.1797 0.00283471 0)
(2.17436 0.00273415 0)
(2.18279 -0.00924121 0)
(2.14875 0.007088 0)
(0.00866193 -0.026608 0)
(0.0431575 -0.0399607 0)
(0.0850665 -0.042535 0)
(0.128062 -0.0439415 0)
(0.172753 -0.0453588 0)
(0.219275 -0.0469286 0)
(0.267843 -0.0486567 -2.03294e-20)
(0.318659 -0.0505261 2.01495e-20)
(0.371902 -0.0525111 0)
(0.427728 -0.0545812 1.97817e-20)
(0.486263 -0.0567026 0)
(0.547604 -0.0588385 0)
(0.611807 -0.0609491 0)
(0.678886 -0.0629936 -1.90219e-20)
(0.748814 -0.0649331 0)
(0.821522 -0.0667321 0)
(0.896904 -0.0683567 1.84408e-20)
(0.97481 -0.0697739 0)
(1.05506 -0.0709566 0)
(1.13745 -0.071887 0)
(1.22172 -0.0725511 -1.76684e-20)
(1.3076 -0.072932 0)
(1.39481 -0.0730198 -1.72887e-20)
(1.48309 -0.0728188 0)
(1.57211 -0.0723382 0)
(1.66152 -0.071583 -1.67329e-20)
(1.75105 -0.0705579 0)
(1.84043 -0.0692771 1.63737e-20)
(1.92936 -0.0677687 0)
(2.0175 -0.0660613 -1.60244e-20)
(2.10461 -0.0641614 0)
(2.19052 -0.062077 0)
(2.27496 -0.0598523 0)
(2.35766 -0.0575306 0)
(2.43847 -0.0551123 0)
(2.51733 -0.0525963 1.50384e-20)
(2.59403 -0.050026 0)
(2.66836 -0.0474484 -2.94591e-20)
(2.7403 -0.0448636 0)
(2.80984 -0.0422607 2.88595e-20)
(2.87686 -0.0396702 0)
(2.94126 -0.0371338 0)
(3.00304 -0.0346536 -2.79909e-20)
(3.06228 -0.0322146 0)
(3.11894 -0.0298311 -2.74305e-20)
(3.17294 -0.0275341 2.71553e-20)
(3.22436 -0.0253285 0)
(3.27331 -0.0231986 2.66142e-20)
(3.3198 -0.021146 2.6348e-20)
(3.3638 -0.0191903 0)
(3.40539 -0.017337 0)
(3.44471 -0.0155729 0)
(3.48181 -0.0138921 0)
(3.5167 -0.0123036 0)
(3.54943 -0.0108126 -2.48036e-20)
(3.58013 -0.00940957 0)
(3.60892 -0.00808569 2.43063e-20)
(3.6358 -0.00684304 0)
(3.66082 -0.00568456 0)
(3.68409 -0.00460352 -2.35745e-20)
(3.70572 -0.00359131 0)
(3.72576 -0.00264684 2.30953e-20)
(3.74424 -0.00177191 0)
(3.76124 -0.000961286 0)
(3.77686 -0.000206134 0)
(3.79116 0.000496514 -2.21561e-20)
(3.80419 0.0011449 0)
(3.81598 0.00174086 0)
(3.82662 0.00229244 -2.14673e-20)
(3.83618 0.00280633 0)
(3.84471 0.00328226 -2.10152e-20)
(3.85223 0.00371875 0)
(3.85879 0.0041203 0)
(3.86447 0.00449521 0)
(3.86932 0.00484653 2.01274e-20)
(3.87338 0.0051662 0)
(3.87669 0.00543688 0)
(3.87926 0.00563468 1.94754e-20)
(3.88113 0.0058017 1.92607e-20)
(3.88233 0.00595017 0)
(3.88291 0.00607967 1.88351e-20)
(3.88289 0.00619004 0)
(3.88233 0.00628587 3.68293e-20)
(3.88126 0.0063713 0)
(3.8797 0.00644705 3.59985e-20)
(3.87765 0.00651213 0)
(3.87514 0.00657761 -3.51779e-20)
(3.87221 0.00663696 0)
(3.86888 0.00669248 0)
(3.86518 0.00674404 0)
(3.86111 0.00678838 3.35666e-20)
(3.85667 0.00682332 0)
(3.85191 0.00684969 -3.27758e-20)
(3.84684 0.00687292 0)
(3.84148 0.00689439 3.1995e-20)
(3.83583 0.00691015 3.16082e-20)
(3.8299 0.00691896 3.12239e-20)
(3.82371 0.00692323 0)
(3.81728 0.00692603 0)
(3.81062 0.00692884 0)
(3.80374 0.00693054 0)
(3.79663 0.00692861 0)
(3.7893 0.00692188 0)
(3.78178 0.0069119 0)
(3.77407 0.00690126 0)
(3.76619 0.00689114 -2.78737e-20)
(3.75813 0.00688026 -2.75133e-20)
(3.74989 0.0068667 0)
(3.74149 0.00684993 0)
(3.73292 0.00683102 0)
(3.72422 0.00681179 -2.6095e-20)
(3.71537 0.0067931 0)
(3.70638 0.00677427 0)
(3.69725 0.00675418 0)
(3.68799 0.00673247 0)
(3.67859 0.00670945 2.43734e-20)
(3.66908 0.00668585 0)
(3.65944 0.00666233 0)
(3.64969 0.00663882 -2.33669e-20)
(3.63983 0.00661509 2.30358e-20)
(3.62985 0.00659084 0)
(3.61975 0.00656584 2.238e-20)
(3.60955 0.00653991 0)
(3.59925 0.00651299 -2.17325e-20)
(3.58884 0.00648551 0)
(3.57834 0.00645821 0)
(3.56774 0.0064316 0)
(3.55705 0.00640547 0)
(3.54625 0.00637906 0)
(3.53536 0.00635154 3.96794e-20)
(3.52437 0.00632269 3.90624e-20)
(3.51329 0.00629312 0)
(3.50212 0.00626375 0)
(3.49087 0.00623524 0)
(3.47953 0.00620743 -3.66335e-20)
(3.46809 0.00617935 0)
(3.45656 0.00615014 0)
(3.44495 0.00611959 0)
(3.43324 0.00608836 -3.4265e-20)
(3.42146 0.00605734 3.3682e-20)
(3.40959 0.00602687 0)
(3.39763 0.00599663 0)
(3.38559 0.00596608 3.19547e-20)
(3.37346 0.00593478 3.13859e-20)
(3.36125 0.00590259 0)
(3.34895 0.00586977 0)
(3.33657 0.00583689 -2.97001e-20)
(3.3241 0.00580436 2.91449e-20)
(3.31156 0.0057722 0)
(3.29892 0.00573986 0)
(3.2862 0.00570703 2.7499e-20)
(3.27339 0.0056738 0)
(3.2605 0.00564007 0)
(3.24751 0.00560582 2.58817e-20)
(3.23444 0.00557162 0)
(3.22127 0.00553795 2.48189e-20)
(3.20801 0.0055049 0)
(3.19465 0.0054727 0)
(3.18118 0.00544111 0)
(3.16759 0.0054098 -2.27285e-20)
(3.15388 0.00537926 0)
(3.14003 0.00534966 0)
(3.12604 0.00532173 0)
(3.11187 0.00529681 0)
(3.09751 0.00527532 0)
(3.08291 0.00525904 0)
(3.06803 0.0052485 -1.91735e-20)
(3.0528 0.00524682 -1.86748e-20)
(3.03716 0.00525588 0)
(3.02095 0.00528505 0)
(3.00405 0.00533758 0)
(2.98621 0.00542189 1.66951e-20)
(2.96695 0.00560827 0)
(2.94634 0.00571538 -3.1414e-20)
(2.92167 0.00653735 3.04241e-20)
(2.8966 0.0061125 2.94152e-20)
(2.85839 0.0104847 -2.84135e-20)
(2.8189 0.00639578 2.73551e-20)
(2.76477 0.032143 -2.63106e-20)
(2.59833 0.0110787 0)
(0.00507844 -0.0796448 0)
(0.041929 -0.126812 0)
(0.084342 -0.135186 4.21081e-20)
(0.128579 -0.139507 0)
(0.174538 -0.143947 -4.14299e-20)
(0.222425 -0.148957 -4.10805e-20)
(0.272514 -0.154549 -2.03934e-20)
(0.325061 -0.160669 -2.01517e-20)
(0.380286 -0.167235 0)
(0.438376 -0.174149 -1.97846e-20)
(0.499489 -0.1813 0)
(0.56375 -0.188569 0)
(0.631244 -0.195833 3.84814e-20)
(0.702003 -0.202969 1.90265e-20)
(0.776009 -0.209859 -3.77063e-20)
(0.853207 -0.216387 -3.73167e-20)
(0.933509 -0.222449 -1.8447e-20)
(1.01677 -0.227947 0)
(1.10282 -0.232801 0)
(1.19144 -0.236938 0)
(1.28239 -0.240301 -1.76989e-20)
(1.37542 -0.242852 0)
(1.47024 -0.244577 5.1913e-20)
(1.56656 -0.245463 0)
(1.66408 -0.245504 0)
(1.76248 -0.244715 1.67445e-20)
(1.86147 -0.243147 0)
(1.96075 -0.240835 -1.63865e-20)
(2.06004 -0.237794 -3.24323e-20)
(2.15902 -0.234079 1.60384e-20)
(2.25746 -0.229776 0)
(2.35516 -0.224945 0)
(2.45182 -0.219626 0)
(2.54719 -0.213876 -3.07537e-20)
(2.64115 -0.207764 -3.04336e-20)
(2.73359 -0.20136 -1.50559e-20)
(2.82426 -0.194724 0)
(2.91299 -0.187902 2.9496e-20)
(2.99971 -0.180935 0)
(3.08441 -0.173877 -2.88982e-20)
(3.16694 -0.16679 0)
(3.24717 -0.159711 0)
(3.32509 -0.152656 2.8032e-20)
(3.40073 -0.145658 0)
(3.47404 -0.138764 8.24305e-20)
(3.54494 -0.132005 -2.71981e-20)
(3.61344 -0.125383 0)
(3.67962 -0.118907 -2.6658e-20)
(3.74348 -0.112607 -2.63923e-20)
(3.80497 -0.106508 0)
(3.86414 -0.100609 0)
(3.92107 -0.0948995 0)
(3.9758 -0.0893941 0)
(4.02834 -0.0841098 0)
(4.07871 -0.0790447 2.48494e-20)
(4.127 -0.0741851 4.92101e-20)
(4.17329 -0.0695291 -2.43523e-20)
(4.21759 -0.0650855 0)
(4.25994 -0.0608536 4.7735e-20)
(4.30043 -0.0568207 -2.36298e-20)
(4.33912 -0.0529774 0)
(4.37606 -0.0493252 -2.31413e-20)
(4.41129 -0.045863 0)
(4.44487 -0.0425791 0)
(4.47689 -0.0394618 -4.48762e-20)
(4.50738 -0.0365084 2.22015e-20)
(4.5364 -0.0337187 -4.39479e-20)
(4.56398 -0.0310842 4.3488e-20)
(4.59021 -0.0285912 2.15121e-20)
(4.61515 -0.0262318 0)
(4.63882 -0.024006 2.10595e-20)
(4.66128 -0.0219111 0)
(4.68257 -0.0199362 0)
(4.70276 -0.0180693 0)
(4.7219 -0.0163073 2.01759e-20)
(4.74 -0.0146574 0)
(4.7571 -0.0131266 3.94725e-20)
(4.77326 -0.0117215 -5.85571e-20)
(4.78856 -0.010408 -1.93024e-20)
(4.803 -0.00917364 0)
(4.81662 -0.00801643 -1.88761e-20)
(4.82946 -0.00693283 0)
(4.84155 -0.00591393 -3.69098e-20)
(4.85295 -0.00495273 0)
(4.86367 -0.00404965 -3.60774e-20)
(4.87376 -0.00320896 7.13368e-20)
(4.88322 -0.00243697 3.52552e-20)
(4.89208 -0.00171843 0)
(4.9004 -0.00104323 0)
(4.90818 -0.000411153 0)
(4.91545 0.000179038 -3.36408e-20)
(4.92223 0.000728427 0)
(4.92855 0.00123988 3.28484e-20)
(4.93445 0.0017203 0)
(4.93994 0.00217203 -9.62028e-20)
(4.94504 0.00259075 -3.16785e-20)
(4.94975 0.00297664 -3.12934e-20)
(4.95412 0.00333511 0)
(4.95815 0.00367103 0)
(4.96188 0.00398683 0)
(4.9653 0.00428227 0)
(4.96843 0.00455564 0)
(4.97129 0.00480652 -5.80714e-20)
(4.97389 0.00503762 -5.7335e-20)
(4.97625 0.00525304 0)
(4.97839 0.00545522 2.79365e-20)
(4.98032 0.00564365 2.75755e-20)
(4.98202 0.00581652 0)
(4.98353 0.00597348 5.37235e-20)
(4.98485 0.00611649 0)
(4.98599 0.00624871 -2.61571e-20)
(4.98698 0.00637217 0)
(4.9878 0.00648674 0)
(4.98847 0.00659133 5.02277e-20)
(4.989 0.00668567 0)
(4.98938 0.0067706 -2.44293e-20)
(4.98964 0.00684778 0)
(4.98978 0.00691877 0)
(4.9898 0.00698411 -2.34231e-20)
(4.9897 0.00704381 -2.30891e-20)
(4.9895 0.00709766 0)
(4.9892 0.00714538 2.24341e-20)
(4.98879 0.00718693 0)
(4.9883 0.00722268 -2.17853e-20)
(4.98771 0.00725364 -4.29262e-20)
(4.98704 0.00728139 0)
(4.98629 0.00730712 0)
(4.98546 0.0073308 0)
(4.98456 0.00735144 0)
(4.98358 0.00736787 -3.97736e-20)
(4.98252 0.00737972 -1.1747e-19)
(4.98139 0.00738797 0)
(4.9802 0.00739441 0)
(4.97895 0.00740055 0)
(4.97764 0.0074066 3.67218e-20)
(4.97625 0.00741136 0)
(4.97481 0.00741322 0)
(4.9733 0.00741155 -6.98757e-20)
(4.97173 0.00740726 -3.43515e-20)
(4.9701 0.00740207 -3.37646e-20)
(4.96842 0.00739707 0)
(4.96668 0.00739217 0)
(4.96488 0.00738646 -3.20338e-20)
(4.96302 0.00737909 3.14664e-20)
(4.9611 0.00736961 0)
(4.95912 0.0073584 0)
(4.95709 0.00734681 2.97747e-20)
(4.955 0.0073361 -8.76575e-20)
(4.95284 0.00732638 0)
(4.95063 0.00731709 0)
(4.94835 0.00730765 -2.75692e-20)
(4.946 0.00729798 0)
(4.94358 0.00728818 -5.29735e-20)
(4.9411 0.00727879 2.59506e-20)
(4.93853 0.00727087 0)
(4.93589 0.00726566 -2.48836e-20)
(4.93317 0.00726447 -4.87129e-20)
(4.93035 0.00726822 0)
(4.92743 0.0072781 0)
(4.9244 0.00729452 2.27888e-20)
(4.92123 0.00731937 0)
(4.91791 0.00735561 -4.35181e-20)
(4.91441 0.00740629 0)
(4.9107 0.00747674 0)
(4.90675 0.00757329 0)
(4.90249 0.00770433 0)
(4.89786 0.00787814 1.92259e-20)
(4.89275 0.0081108 1.87261e-20)
(4.88707 0.00842067 0)
(4.88059 0.00883308 0)
(4.87316 0.00942284 0)
(4.86437 0.0100969 -1.67418e-20)
(4.85369 0.0115453 0)
(4.84132 0.0119044 3.15025e-20)
(4.82275 0.0176114 -3.05099e-20)
(4.80616 0.0122895 -2.94983e-20)
(4.76825 0.038492 -2.85147e-20)
(4.73936 0.00866528 -2.74321e-20)
(4.68162 0.104132 -2.64705e-20)
(4.55915 0.0489053 0)
(0.00052953 -0.122229 0)
(0.0342922 -0.208999 0)
(0.0745834 -0.223724 -4.21072e-20)
(0.116794 -0.230925 -4.18866e-20)
(0.160789 -0.238427 4.143e-20)
(0.206867 -0.247013 4.10806e-20)
(0.255332 -0.256683 -1.04373e-22)
(0.306479 -0.267322 0)
(0.360568 -0.278778 0)
(0.417825 -0.290871 0)
(0.478428 -0.303398 0)
(0.542505 -0.316145 0)
(0.610128 -0.328892 -1.15597e-19)
(0.681317 -0.341422 0)
(0.756036 -0.353521 3.7707e-20)
(0.834212 -0.364989 3.73175e-20)
(0.915721 -0.375638 0)
(1.00038 -0.3853 0)
(1.08798 -0.393845 0)
(1.17829 -0.401161 0)
(1.27102 -0.407152 3.53774e-20)
(1.36583 -0.411745 0)
(1.46242 -0.414918 -3.46167e-20)
(1.56054 -0.416669 0)
(1.65982 -0.417001 0)
(1.75986 -0.415943 0)
(1.86034 -0.41356 -6.63267e-20)
(1.96108 -0.409913 0)
(2.06175 -0.405076 3.24358e-20)
(2.16194 -0.399152 -6.42102e-20)
(2.26139 -0.392242 0)
(2.35999 -0.384424 0)
(2.45752 -0.375798 0)
(2.55365 -0.366494 3.07587e-20)
(2.64819 -0.356617 3.04388e-20)
(2.74108 -0.346242 0)
(2.83218 -0.335457 0)
(2.92131 -0.324373 -5.90381e-20)
(3.00835 -0.31308 -5.84359e-20)
(3.09326 -0.301638 5.78424e-20)
(3.17597 -0.29011 0)
(3.25641 -0.27857 0)
(3.33454 -0.267088 0)
(3.41035 -0.255712 0)
(3.48379 -0.244474 -5.49735e-20)
(3.55487 -0.23341 -5.44429e-20)
(3.62361 -0.222561 5.38999e-20)
(3.69004 -0.211967 0)
(3.75414 -0.20165 0)
(3.81591 -0.191614 0)
(3.87543 -0.181871 0)
(3.93276 -0.172444 -5.12669e-20)
(3.9879 -0.163352 0)
(4.04087 -0.154592 0)
(4.09174 -0.146153 -4.97439e-20)
(4.1406 -0.138037 -4.923e-20)
(4.18748 -0.13026 0)
(4.2324 -0.122821 9.65142e-20)
(4.27542 -0.1157 -4.77556e-20)
(4.31662 -0.108885 4.72712e-20)
(4.35606 -0.102378 0)
(4.39377 -0.0961846 0)
(4.42981 -0.09029 0)
(4.46425 -0.0846736 0)
(4.49713 -0.0793269 4.48979e-20)
(4.52853 -0.0742519 8.8885e-20)
(4.55846 -0.0694422 4.39698e-20)
(4.587 -0.0648784 -4.351e-20)
(4.61421 -0.0605448 0)
(4.64013 -0.0564385 8.52148e-20)
(4.66481 -0.0525589 8.43112e-20)
(4.68828 -0.0488946 8.3413e-20)
(4.71062 -0.0454271 -8.25202e-20)
(4.73186 -0.0421455 0)
(4.75205 -0.0390501 -1.21119e-19)
(4.77122 -0.0361388 0)
(4.78941 -0.0333948 3.95071e-20)
(4.80668 -0.0307885 3.90618e-20)
(4.82309 -0.0283232 0)
(4.83865 -0.0259987 0)
(4.85339 -0.0238113 7.55672e-20)
(4.86736 -0.0217501 0)
(4.88059 -0.0198036 7.38807e-20)
(4.89313 -0.0179661 0)
(4.90499 -0.0162391 -7.22145e-20)
(4.91619 -0.0146241 -1.4277e-19)
(4.92678 -0.0131265 0)
(4.93679 -0.0117232 0)
(4.94627 -0.0104043 0)
(4.95522 -0.00916817 -6.8137e-20)
(4.96366 -0.00801572 0)
(4.97162 -0.006938 -6.6541e-20)
(4.97913 -0.00592384 0)
(4.98623 -0.00496956 0)
(4.99291 -0.00407502 1.28363e-19)
(4.99921 -0.00324132 0)
(5.00513 -0.00246516 6.26378e-20)
(5.01072 -0.00173893 0)
(5.01598 -0.00105679 6.11109e-20)
(5.02094 -0.000417252 0)
(5.0256 0.000178946 0)
(5.02998 0.000732147 0)
(5.03409 0.00124582 1.74342e-19)
(5.03796 0.00172534 5.73748e-20)
(5.0416 0.00217442 0)
(5.04503 0.00259368 0)
(5.04826 0.00298223 0)
(5.05127 0.00334021 0)
(5.05411 0.0036703 -5.37619e-20)
(5.05677 0.00397664 1.06112e-19)
(5.05927 0.00426246 5.23492e-20)
(5.06162 0.00452854 -1.03305e-19)
(5.06384 0.00477427 -1.01915e-19)
(5.06591 0.00499952 -5.02646e-20)
(5.06785 0.00520554 0)
(5.06967 0.00539461 -9.77992e-20)
(5.07139 0.00556921 0)
(5.073 0.00573099 9.50995e-20)
(5.07452 0.00588042 4.68793e-20)
(5.07595 0.00601768 0)
(5.07729 0.00614272 -9.11157e-20)
(5.07854 0.00625556 -4.49005e-20)
(5.07972 0.0063569 0)
(5.08083 0.00644822 -4.36061e-20)
(5.08188 0.00653149 1.28882e-19)
(5.08287 0.00660842 0)
(5.0838 0.00667963 0)
(5.08469 0.00674441 0)
(5.08552 0.00680174 0)
(5.08631 0.00685126 7.96174e-20)
(5.08705 0.00689375 7.83773e-20)
(5.08775 0.00693107 0)
(5.08842 0.00696513 0)
(5.08905 0.00699698 0)
(5.08966 0.00702629 0)
(5.09024 0.00705161 0)
(5.09078 0.00707158 0)
(5.0913 0.00708646 6.99343e-20)
(5.09179 0.0070981 -2.51443e-24)
(5.09226 0.00710838 0)
(5.09271 0.00711797 0)
(5.09314 0.0071264 6.52753e-20)
(5.09355 0.00713268 0)
(5.09394 0.00713587 -6.2985e-20)
(5.09432 0.00713578 -6.18535e-20)
(5.09467 0.00713349 0)
(5.09501 0.00713114 0)
(5.09534 0.00713019 5.84912e-20)
(5.09565 0.0071303 1.14773e-19)
(5.09594 0.00713065 0)
(5.09622 0.00713105 0)
(5.09648 0.00713132 0)
(5.09671 0.00713158 5.30222e-20)
(5.09693 0.00713344 -5.19473e-20)
(5.09711 0.00713885 0)
(5.09728 0.00714903 -9.96347e-20)
(5.09741 0.00716627 -4.87621e-20)
(5.09751 0.00719202 9.5419e-20)
(5.09755 0.00722809 0)
(5.09754 0.00727705 0)
(5.09746 0.00734185 8.91815e-20)
(5.09728 0.00742814 4.35606e-20)
(5.09699 0.0075423 0)
(5.09655 0.00769229 0)
(5.09594 0.00788993 0)
(5.09508 0.00815023 0)
(5.09394 0.0084887 7.69887e-20)
(5.09238 0.00893207 0)
(5.09035 0.00952106 0)
(5.08757 0.0102831 0)
(5.08411 0.0113555 0)
(5.07897 0.0126652 0)
(5.07337 0.0148415 0)
(5.06315 0.016892 6.3095e-20)
(5.05443 0.0225672 0)
(5.03405 0.0240379 0)
(5.0174 0.0449414 1.14176e-19)
(4.98615 0.0381529 -5.50812e-20)
(4.94346 0.115793 5.29109e-20)
(4.91042 0.109017 -5.10562e-20)
(-0.00576586 -0.149437 0)
(0.0232392 -0.284862 8.54303e-20)
(0.0603559 -0.307546 0)
(0.0993829 -0.318005 4.18863e-20)
(0.140301 -0.328948 0)
(0.183574 -0.341617 0)
(0.229571 -0.355994 -4.11258e-20)
(0.278651 -0.371885 0)
(0.331136 -0.389039 0)
(0.387292 -0.407166 0)
(0.447324 -0.425947 0)
(0.511371 -0.44505 0)
(0.5795 -0.464134 1.54443e-19)
(0.65171 -0.482863 7.65294e-20)
(0.727931 -0.500907 -7.57269e-20)
(0.808044 -0.517966 0)
(0.89188 -0.533767 0)
(0.979177 -0.548066 0)
(1.06963 -0.560666 0)
(1.16296 -0.571413 0)
(1.25885 -0.580183 7.09317e-20)
(1.35691 -0.586888 7.01499e-20)
(1.45672 -0.591503 -6.93764e-20)
(1.55795 -0.594037 6.86121e-20)
(1.66025 -0.594502 0)
(1.76318 -0.592963 0)
(1.86642 -0.589524 6.63269e-20)
(1.96967 -0.584287 0)
(2.07256 -0.577365 0)
(2.17475 -0.568904 6.42105e-20)
(2.27608 -0.559047 6.35653e-20)
(2.37633 -0.547935 6.28902e-20)
(2.47516 -0.53573 0)
(2.5723 -0.522588 0)
(2.66775 -0.50863 -6.09316e-20)
(2.76142 -0.493992 0)
(2.85303 -0.478833 0)
(2.9424 -0.463288 5.90388e-20)
(3.02957 -0.447441 -5.84901e-20)
(3.11456 -0.431381 5.78955e-20)
(3.19722 -0.415235 0)
(3.2774 -0.399115 0)
(3.35515 -0.383073 1.12272e-19)
(3.43057 -0.367151 0)
(3.50362 -0.351423 1.10034e-19)
(3.57419 -0.33597 1.63379e-19)
(3.64231 -0.320836 -1.61749e-19)
(3.70809 -0.306031 1.06773e-19)
(3.77157 -0.29158 0)
(3.83274 -0.277529 0)
(3.89159 -0.263909 1.03612e-19)
(3.9482 -0.250727 5.12687e-20)
(4.00265 -0.237977 0)
(4.05499 -0.225665 0)
(4.10522 -0.21381 4.9746e-20)
(4.15341 -0.202421 9.85289e-20)
(4.19963 -0.191487 0)
(4.24393 -0.180993 -9.65188e-20)
(4.28638 -0.170932 9.55744e-20)
(4.32701 -0.161307 -9.46036e-20)
(4.36587 -0.152117 0)
(4.40304 -0.143345 0)
(4.43857 -0.134972 0)
(4.47252 -0.126986 0)
(4.50495 -0.119385 0)
(4.53588 -0.112158 -8.88905e-20)
(4.56539 -0.105287 0)
(4.59353 -0.0987528 0)
(4.62036 -0.0925463 0)
(4.64592 -0.0866633 -1.70461e-19)
(4.67025 -0.081091 -8.4317e-20)
(4.69341 -0.075809 -8.34189e-20)
(4.71545 -0.0708005 1.6507e-19)
(4.73641 -0.0660589 -8.16556e-20)
(4.75633 -0.0615794 8.07567e-20)
(4.77524 -0.0573487 0)
(4.79321 -0.0533461 -7.90082e-20)
(4.81027 -0.0495558 0)
(4.82648 -0.0459748 0)
(4.84184 -0.042599 0)
(4.8564 -0.0394185 -1.51159e-19)
(4.8702 -0.0364204 7.47392e-20)
(4.88328 -0.0335958 7.39087e-20)
(4.89567 -0.03094 1.46124e-19)
(4.90739 -0.0284466 2.16683e-19)
(4.91847 -0.026103 7.13956e-20)
(4.92895 -0.0238875 0)
(4.93887 -0.0217998 1.39536e-19)
(4.94825 -0.0198394 0)
(4.95711 -0.0180021 2.04447e-19)
(4.96546 -0.0162832 0)
(4.97335 -0.0146693 1.99658e-19)
(4.9808 -0.0131534 0)
(4.98784 -0.0117301 0)