/*--------------------------------*- C++ -*----------------------------------*\
| =========                 |                                                 |
| \\      /  F ield         | OpenFOAM: The Open Source CFD Toolbox           |
|  \\    /   O peration     | Version:  2.1.x                                 |
|   \\  /    A nd           | Web:      www.OpenFOAM.org                      |
|    \\/     M anipulation  |                                                 |
\*---------------------------------------------------------------------------*/
FoamFile
{
    version     2.0;
    format      ascii;
    class       volVectorField;
    location    "0.002";
    object      UMean;
}
// * * * * * * * * * * * * * * * * * * * * * * * * * * * * * * * * * * * * * //

dimensions      [0 1 -1 0 0 0 0];

internalField   nonuniform List<vector> 
12225
(
(7.13536 0.35421 0)
(5.1168 0.174301 0)
(4.02391 0.0253038 0)
(3.55079 -0.0138587 0)
(3.4403 -0.0165737 0)
(3.49122 -0.0147019 0)
(3.53163 -0.00682558 0)
(3.70136 -0.0104577 0)
(3.73331 -0.0116418 0)
(3.98851 -0.0136182 0)
(3.97085 -0.0136925 0)
(4.30322 -0.0159043 0)
(4.41803 -0.0410053 0)
(4.74268 -0.00768993 0)
(5.28428 -0.104077 0)
(5.27124 0.0747066 0)
(7.09505 -0.573038 0)
(7.13043 0.238214 0)
(9.51632 0.821588 0)
(9.27314 0.668983 0)
(8.53717 0.316165 0)
(7.86281 0.127139 0)
(7.51789 0.023382 0)
(7.49334 -0.0209161 0)
(7.36957 -0.0490338 0)
(7.75562 -0.0476704 0)
(7.62115 -0.0691782 0)
(8.21057 -0.0738394 0)
(7.9393 -0.0615211 0)
(8.74473 -0.153882 0)
(8.61418 -0.0896159 0)
(9.4141 -0.298526 0)
(9.65323 -0.140097 0)
(10.482 -0.56676 0)
(11.3792 -0.719356 0)
(12.6695 -1.36135 0)
(9.78964 0.670499 0)
(10.5715 0.700091 0)
(10.5838 0.396895 0)
(10.204 0.216237 0)
(9.92737 0.0807471 0)
(9.85158 0.0201953 0)
(9.68503 -0.0613202 0)
(9.91528 -0.0933644 0)
(9.90456 -0.140595 0)
(10.2413 -0.13953 0)
(10.2026 -0.162048 0)
(10.7097 -0.270864 0)
(10.8331 -0.29023 0)
(11.3517 -0.401767 0)
(11.6516 -0.457945 0)
(12.333 -0.781462 0)
(12.8316 -1.12981 0)
(13.7183 -2.08641 0)
(9.57115 0.514457 0)
(10.5232 0.632929 0)
(10.9452 0.373719 0)
(10.8174 0.243022 0)
(10.8209 0.0919822 0)
(10.7109 0.0370741 0)
(10.719 -0.0387805 0)
(10.705 -0.109491 0)
(10.903 -0.173778 0)
(10.8492 -0.168751 0)
(11.0856 -0.211447 0)
(11.22 -0.322717 0)
(11.4974 -0.40078 0)
(11.6269 -0.455771 0)
(12.0312 -0.644783 0)
(12.324 -0.906299 0)
(12.7765 -1.43845 0)
(13.0554 -2.07079 0)
(9.6115 0.3922 0)
(10.4861 0.512583 0)
(10.8138 0.363358 0)
(10.87 0.184818 0)
(10.8545 0.0962883 0)
(10.8279 0.00275011 0)
(10.8439 -0.0135525 0)
(10.9415 -0.19102 0)
(10.9605 -0.156373 0)
(11.0292 -0.247551 0)
(11.1967 -0.252101 0)
(11.3486 -0.459138 0)
(11.4392 -0.456975 0)
(11.6457 -0.640194 0)
(11.9697 -0.805833 0)
(12.2626 -1.20279 0)
(12.5137 -1.62788 0)
(12.6721 -2.24865 0)
(9.6756 0.285339 0)
(10.4062 0.469115 0)
(10.7494 0.295118 0)
(10.8175 0.206431 0)
(10.8322 0.073249 0)
(10.812 0.0130379 0)
(10.8637 -0.0623955 0)
(10.9086 -0.126337 0)
(10.9787 -0.223942 0)
(11.041 -0.271287 0)
(11.1843 -0.343994 0)
(11.2924 -0.447671 0)
(11.4264 -0.585834 0)
(11.6185 -0.757114 0)
(11.8727 -0.992564 0)
(12.0708 -1.30986 0)
(12.2436 -1.70615 0)
(12.3659 -2.2792 0)
(9.54769 0.183522 0)
(10.1934 0.305741 0)
(10.4964 0.266417 0)
(10.5717 0.112709 0)
(10.6363 0.0561872 0)
(10.6367 -0.0401795 0)
(10.6921 -0.0637721 0)
(10.7769 -0.201845 0)
(10.8764 -0.242798 0)
(10.9294 -0.313202 0)
(11.0565 -0.38929 0)
(11.1752 -0.560097 0)
(11.3115 -0.67103 0)
(11.4499 -0.83956 0)
(11.6456 -1.0801 0)
(11.7903 -1.42979 0)
(11.9169 -1.83773 0)
(11.9651 -2.32376 0)
(9.64104 0.190473 0)
(10.1824 0.300667 0)
(10.4238 0.223281 0)
(10.5107 0.129026 0)
(10.5602 0.0354035 0)
(10.5818 -0.0528016 0)
(10.6462 -0.108665 0)
(10.72 -0.192924 0)
(10.8087 -0.281835 0)
(10.8816 -0.368619 0)
(10.9988 -0.454295 0)
(11.0972 -0.590515 0)
(11.2083 -0.752368 0)
(11.3284 -0.954407 0)
(11.4964 -1.20012 0)
(11.6109 -1.5162 0)
(11.6813 -1.87124 0)
(11.6736 -2.27723 0)
(9.66947 0.114732 0)
(10.1975 0.199899 0)
(10.411 0.17872 0)
(10.4752 0.0755981 0)
(10.5336 0.00317908 0)
(10.5577 -0.0768769 0)
(10.6029 -0.132679 0)
(10.6763 -0.228199 0)
(10.7792 -0.313449 0)
(10.8443 -0.395582 0)
(10.9385 -0.497014 0)
(11.033 -0.660115 0)
(11.1467 -0.822104 0)
(11.2358 -1.00146 0)
(11.3545 -1.24714 0)
(11.4302 -1.56521 0)
(11.4698 -1.89224 0)
(11.4242 -2.25761 0)
(9.68706 0.0981925 0)
(10.1658 0.173261 0)
(10.3526 0.139413 0)
(10.4207 0.0577372 0)
(10.4655 -0.0159854 0)
(10.4777 -0.108611 0)
(10.527 -0.168387 0)
(10.59 -0.250867 0)
(10.681 -0.343461 0)
(10.7578 -0.452237 0)
(10.8527 -0.557452 0)
(10.9301 -0.70405 0)
(11.0128 -0.874916 0)
(11.0827 -1.08704 0)
(11.1833 -1.32333 0)
(11.2295 -1.59336 0)
(11.2284 -1.88294 0)
(11.1828 -2.21218 0)
(9.67 0.0804645 0)
(10.136 0.105126 0)
(10.2976 0.0922759 0)
(10.347 0.0276752 0)
(10.3963 -0.0460766 0)
(10.4266 -0.119884 0)
(10.473 -0.191812 0)
(10.5357 -0.28629 0)
(10.635 -0.378935 0)
(10.7056 -0.48641 0)
(10.7674 -0.604111 0)
(10.8242 -0.76286 0)
(10.9 -0.935012 0)
(10.9516 -1.12474 0)
(10.9966 -1.3384 0)
(11.0075 -1.60305 0)
(11.0043 -1.88249 0)
(10.9519 -2.1765 0)
(9.57112 0.0348202 0)
(10.0141 0.068285 0)
(10.1478 0.0531925 0)
(10.1939 -0.0132811 0)
(10.2495 -0.0848301 0)
(10.2848 -0.170867 0)
(10.3392 -0.247368 0)
(10.404 -0.330558 0)
(10.4861 -0.424644 0)
(10.549 -0.544839 0)
(10.6117 -0.665467 0)
(10.6591 -0.811316 0)
(10.7062 -0.981149 0)
(10.7407 -1.17797 0)
(10.7804 -1.38257 0)
(10.7886 -1.61114 0)
(10.7596 -1.84868 0)
(10.6761 -2.08114 0)
(9.63581 0.030028 0)
(10.0412 0.0251864 0)
(10.1579 -0.00779468 0)
(10.1896 -0.0643655 0)
(10.2306 -0.129562 0)
(10.2585 -0.202033 0)
(10.302 -0.272532 0)
(10.3537 -0.362488 0)
(10.4298 -0.460303 0)
(10.4897 -0.5751 0)
(10.5308 -0.700363 0)
(10.5527 -0.854508 0)
(10.5878 -1.01594 0)
(10.6078 -1.19178 0)
(10.6092 -1.37798 0)
(10.5819 -1.58459 0)
(10.5389 -1.7781 0)
(10.4605 -1.98847 0)
(9.6146 0.0250639 0)
(10.0211 0.0054994 0)
(10.1107 -0.0368503 0)
(10.1125 -0.100561 0)
(10.1303 -0.170665 0)
(10.1458 -0.248935 0)
(10.1824 -0.327891 0)
(10.2335 -0.418251 0)
(10.3036 -0.513035 0)
(10.3518 -0.630017 0)
(10.3844 -0.755159 0)
(10.3983 -0.894639 0)
(10.4118 -1.04116 0)
(10.4087 -1.20754 0)
(10.4003 -1.37119 0)
(10.3652 -1.54177 0)
(10.308 -1.71658 0)
(10.2263 -1.888 0)
(9.69966 -0.00382315 0)
(10.1033 -0.0267015 0)
(10.1831 -0.0685217 0)
(10.1734 -0.131142 0)
(10.1786 -0.201503 0)
(10.1844 -0.279276 0)
(10.2101 -0.357852 0)
(10.2499 -0.447759 0)
(10.3046 -0.543716 0)
(10.3379 -0.655135 0)
(10.3488 -0.771204 0)
(10.334 -0.902012 0)
(10.3194 -1.03574 0)
(10.2934 -1.17748 0)
(10.2562 -1.31628 0)
(10.1943 -1.46322 0)
(10.1217 -1.59992 0)
(10.0253 -1.73888 0)
(9.63257 -0.0151906 0)
(10.0292 -0.0490401 0)
(10.1161 -0.0929927 0)
(10.1186 -0.156518 0)
(10.1282 -0.230199 0)
(10.1316 -0.312992 0)
(10.1464 -0.396767 0)
(10.1715 -0.485671 0)
(10.2066 -0.573291 0)
(10.2177 -0.669944 0)
(10.205 -0.769832 0)
(10.1712 -0.879208 0)
(10.1377 -0.988696 0)
(10.0948 -1.1069 0)
(10.0461 -1.22281 0)
(9.97996 -1.3417 0)
(9.90379 -1.45366 0)
(9.81166 -1.5657 0)
(9.47103 -0.0455061 0)
(9.87454 -0.109563 0)
(9.95182 -0.165699 0)
(9.95519 -0.22543 0)
(9.96961 -0.288967 0)
(9.97391 -0.358003 0)
(9.98137 -0.426545 0)
(9.9958 -0.499022 0)
(10.0169 -0.572662 0)
(10.0162 -0.656105 0)
(9.99448 -0.743106 0)
(9.95681 -0.838079 0)
(9.92185 -0.932433 0)
(9.88129 -1.03083 0)
(9.83511 -1.12408 0)
(9.77227 -1.21826 0)
(9.7007 -1.30461 0)
(9.61593 -1.38933 0)
(9.58642 -0.0154684 0)
(9.97672 -0.117158 0)
(10.0422 -0.190719 0)
(10.0225 -0.252923 0)
(10.0033 -0.310974 0)
(9.97836 -0.367992 0)
(9.96121 -0.423605 0)
(9.95745 -0.484919 0)
(9.96276 -0.54976 0)
(9.94993 -0.622839 0)
(9.91703 -0.6977 0)
(9.87027 -0.776937 0)
(9.82528 -0.852977 0)
(9.77563 -0.929865 0)
(9.72031 -1.00076 0)
(9.65125 -1.07096 0)
(9.57499 -1.13384 0)
(9.48878 -1.19544 0)
(9.60703 -0.0624269 0)
(10.0067 -0.14388 0)
(10.0668 -0.213792 0)
(10.0294 -0.271779 0)
(9.99507 -0.318645 0)
(9.96145 -0.362629 0)
(9.9345 -0.408865 0)
(9.92013 -0.463567 0)
(9.91333 -0.522182 0)
(9.88898 -0.58553 0)
(9.84417 -0.647333 0)
(9.78753 -0.709964 0)
(9.73378 -0.767898 0)
(9.67825 -0.824972 0)
(9.61835 -0.876156 0)
(9.54732 -0.926566 0)
(9.47044 -0.971207 0)
(9.38631 -1.01536 0)
(9.53806 -0.0574696 0)
(9.95419 -0.121182 0)
(10.0232 -0.195392 0)
(10.0066 -0.257603 0)
(9.99606 -0.301633 0)
(9.9825 -0.337396 0)
(9.96994 -0.372696 0)
(9.96595 -0.415016 0)
(9.96292 -0.462043 0)
(9.93617 -0.514679 0)
(9.88235 -0.56709 0)
(9.81294 -0.620163 0)
(9.74383 -0.668484 0)
(9.67366 -0.714785 0)
(9.59998 -0.75485 0)
(9.51795 -0.793282 0)
(9.43208 -0.826209 0)
(9.34199 -0.858575 0)
(9.66761 -0.0932955 0)
(10.0494 -0.190396 0)
(10.1105 -0.266227 0)
(10.0955 -0.314064 0)
(10.08 -0.343835 0)
(10.0553 -0.367631 0)
(10.0281 -0.390138 0)
(10.01 -0.415554 0)
(9.99399 -0.442005 0)
(9.95598 -0.471819 0)
(9.89155 -0.501853 0)
(9.81281 -0.53381 0)
(9.7349 -0.563933 0)
(9.65742 -0.594879 0)
(9.57711 -0.623124 0)
(9.49015 -0.651947 0)
(9.4002 -0.677494 0)
(9.30782 -0.703308 0)
(9.57143 -0.0558677 0)
(9.98335 -0.178707 0)
(10.0685 -0.252625 0)
(10.0682 -0.290748 0)
(10.0571 -0.31167 0)
(10.0296 -0.32737 0)
(9.99267 -0.341029 0)
(9.96087 -0.35652 0)
(9.93058 -0.373793 0)
(9.88175 -0.395559 0)
(9.81144 -0.41881 0)
(9.73265 -0.444068 0)
(9.6587 -0.467697 0)
(9.58774 -0.491823 0)
(9.51437 -0.513559 0)
(9.43443 -0.535618 0)
(9.35073 -0.554842 0)
(9.26411 -0.574263 0)
(9.72734 -0.110759 0)
(10.1423 -0.247499 0)
(10.2443 -0.319491 0)
(10.248 -0.341862 0)
(10.2207 -0.342064 0)
(10.1672 -0.337555 0)
(10.1024 -0.332123 0)
(10.0449 -0.330314 0)
(9.99238 -0.334179 0)
(9.92677 -0.345672 0)
(9.84449 -0.360553 0)
(9.7573 -0.377719 0)
(9.67608 -0.393564 0)
(9.5986 -0.409717 0)
(9.51902 -0.423795 0)
(9.43395 -0.438151 0)
(9.34581 -0.45015 0)
(9.2556 -0.462714 0)
(9.60454 -0.0902487 0)
(10.0665 -0.261515 0)
(10.2137 -0.323435 0)
(10.2437 -0.315796 0)
(10.2244 -0.288182 0)
(10.1735 -0.26633 0)
(10.1132 -0.251069 0)
(10.0608 -0.243627 0)
(10.0113 -0.246272 0)
(9.94709 -0.258878 0)
(9.86466 -0.274557 0)
(9.77571 -0.290395 0)
(9.69062 -0.30362 0)
(9.60823 -0.316158 0)
(9.52344 -0.326644 0)
(9.43412 -0.336957 0)
(9.34239 -0.345098 0)
(9.24934 -0.353677 0)
(9.61504 -0.15649 0)
(10.129 -0.349408 0)
(10.3085 -0.397673 0)
(10.3536 -0.36339 0)
(10.337 -0.316249 0)
(10.2847 -0.280391 0)
(10.2205 -0.251616 0)
(10.1573 -0.229635 0)
(10.0906 -0.219202 0)
(10.0093 -0.220687 0)
(9.91331 -0.226685 0)
(9.81342 -0.233012 0)
(9.7183 -0.237823 0)
(9.62697 -0.243163 0)
(9.53484 -0.248012 0)
(9.44032 -0.2529 0)
(9.34465 -0.256156 0)
(9.24842 -0.259889 0)
(9.55305 -0.206143 0)
(10.162 -0.418476 0)
(10.4194 -0.433319 0)
(10.4918 -0.359256 0)
(10.4694 -0.286605 0)
(10.4036 -0.230671 0)
(10.326 -0.183269 0)
(10.2482 -0.147628 0)
(10.1662 -0.133617 0)
(10.0725 -0.136054 0)
(9.96759 -0.14284 0)
(9.86012 -0.147891 0)
(9.75646 -0.151242 0)
(9.65617 -0.155346 0)
(9.55613 -0.159698 0)
(9.4557 -0.163281 0)
(9.3552 -0.165254 0)
(9.2548 -0.166819 0)
(9.58662 -0.297312 0)
(10.2863 -0.540478 0)
(10.5777 -0.504308 0)
(10.6346 -0.389272 0)
(10.5795 -0.298158 0)
(10.4801 -0.229535 0)
(10.3688 -0.167122 0)
(10.2596 -0.115592 0)
(10.1524 -0.091177 0)
(10.0444 -0.0871917 0)
(9.9339 -0.0896441 0)
(9.82471 -0.0890887 0)
(9.72087 -0.0883059 0)
(9.62148 -0.0890615 0)
(9.52442 -0.0915479 0)
(9.42834 -0.0925085 0)
(9.33228 -0.0921817 0)
(9.23558 -0.0898176 0)
(9.68046 -0.380144 0)
(10.4502 -0.647007 0)
(10.6573 -0.534543 0)
(10.5678 -0.367704 0)
(10.3756 -0.244045 0)
(10.1758 -0.155028 0)
(10.0042 -0.0859427 0)
(9.87184 -0.0360068 0)
(9.76448 -0.0157486 0)
(9.67189 -0.013031 0)
(9.5866 -0.0181117 0)
(9.50273 -0.0178345 0)
(9.42596 -0.0191482 0)
(9.34669 -0.0194016 0)
(9.27378 -0.0228355 0)
(9.19474 -0.0224262 0)
(9.12044 -0.0209145 0)
(9.0381 -0.0132512 0)
(9.6538 -0.601296 0)
(9.991 -0.783392 0)
(9.63372 -0.576571 0)
(9.09571 -0.361529 0)
(8.64276 -0.198634 0)
(8.33482 -0.0874319 0)
(8.15676 -0.021747 0)
(8.07372 0.00807693 0)
(8.03711 0.0126638 0)
(8.01538 0.00818644 0)
(7.99678 0.00210472 0)
(7.96758 0.00306384 0)
(7.9515 0.00184148 0)
(7.91498 0.00431252 0)
(7.90483 0.00157762 0)
(7.85952 0.00371124 0)
(7.85394 0.00465639 0)
(7.79789 0.0110445 0)
(8.5565 -0.336582 0)
(6.85472 -0.3183 0)
(5.46928 -0.123878 0)
(4.63929 -0.0181365 0)
(4.26191 0.0232428 0)
(4.13062 0.030866 0)
(4.11107 0.0245555 0)
(4.13479 0.0163649 0)
(4.1652 0.0110382 0)
(4.1894 0.00855066 0)
(4.20489 0.0087092 0)
(4.21657 0.00975393 0)
(4.23165 0.0105529 0)
(4.23991 0.0118651 0)
(4.26437 0.00976946 0)
(4.25538 0.0149149 0)
(4.30297 0.00493616 0)
(4.24966 0.0264526 0)
(0.0344311 -0.0772116 0)
(0.112336 -0.0845336 0)
(0.193604 -0.0853994 0)
(0.276095 -0.0857072 0)
(0.359531 -0.0859407 0)
(0.443866 -0.0861458 0)
(0.529102 -0.0863233 1.04913e-19)
(0.615228 -0.0864663 -1.04135e-19)
(0.702219 -0.0865662 0)
(0.790044 -0.0866141 -1.02586e-19)
(0.878659 -0.0866006 0)
(0.968009 -0.086514 0)
(1.05803 -0.0863413 0)
(1.14863 -0.0860713 9.95198e-20)
(1.23972 -0.0856959 0)
(1.33119 -0.0852074 0)
(1.42293 -0.0845966 -9.72418e-20)
(1.51481 -0.0838578 0)
(1.60669 -0.0829909 0)
(1.69842 -0.0819938 0)
(1.78984 -0.0808606 9.42281e-20)
(1.88082 -0.0795929 0)
(1.97123 -0.0782018 9.273e-20)
(2.06088 -0.0766935 0)
(2.14959 -0.0750672 0)
(2.23727 -0.0733309 9.04931e-20)
(2.32379 -0.071502 0)
(2.40898 -0.0695905 -8.90089e-20)
(2.49269 -0.0675969 0)
(2.57485 -0.0655314 8.75307e-20)
(2.65539 -0.063417 0)
(2.73415 -0.0612694 0)
(2.81102 -0.0590873 0)
(2.886 -0.0568747 0)
(2.95904 -0.0546536 0)
(3.03002 -0.0524409 -8.3138e-20)
(3.0989 -0.0502359 0)
(3.16569 -0.0480405 1.63381e-19)
(3.23038 -0.0458716 0)
(3.29292 -0.0437416 -1.60504e-19)
(3.35329 -0.0416478 0)
(3.41154 -0.0395904 0)
(3.46768 -0.0375831 1.56229e-19)
(3.5217 -0.0356364 0)
(3.57359 -0.0337448 1.53408e-19)
(3.62345 -0.0319031 -1.52006e-19)
(3.6713 -0.0301206 0)
(3.71716 -0.0284081 -1.49221e-19)
(3.76103 -0.0267615 -1.47839e-19)
(3.80299 -0.0251708 0)
(3.84313 -0.0236384 0)
(3.88146 -0.0221748 0)
(3.91799 -0.0207805 0)
(3.95279 -0.0194447 0)
(3.98595 -0.0181616 1.39688e-19)
(4.01752 -0.016938 0)
(4.04751 -0.0157796 -1.37028e-19)
(4.07596 -0.01468 0)
(4.10297 -0.013629 0)
(4.12859 -0.012626 1.33095e-19)
(4.15286 -0.0116775 0)
(4.1758 -0.0107838 -1.3051e-19)
(4.19747 -0.00993614 0)
(4.21795 -0.0091276 0)
(4.23728 -0.00836047 0)
(4.25548 -0.00763912 1.25434e-19)
(4.2726 -0.00696091 0)
(4.28868 -0.00631802 0)
(4.30379 -0.00570645 1.21709e-19)
(4.31797 -0.00512864 0)
(4.33122 -0.00458667 1.19265e-19)
(4.3436 -0.00407703 0)
(4.35515 -0.00359387 0)
(4.36591 -0.00313501 0)
(4.37591 -0.00270214 -1.1447e-19)
(4.38518 -0.00229559 0)
(4.39375 -0.00191287 0)
(4.40167 -0.00155414 -1.10955e-19)
(4.40895 -0.00122008 -1.09799e-19)
(4.41562 -0.000912104 0)
(4.4217 -0.000628484 -1.0751e-19)
(4.42724 -0.00036412 0)
(4.43225 -0.000115355 -2.10503e-19)
(4.43677 0.000116845 0)
(4.4408 0.000329714 -2.06047e-19)
(4.44436 0.00052341 0)
(4.44748 0.000703735 2.0165e-19)
(4.45019 0.000875093 0)
(4.45252 0.00103785 0)
(4.45447 0.00118872 0)
(4.45604 0.00132641 -1.93035e-19)
(4.45727 0.00145246 0)
(4.45817 0.00157057 1.88815e-19)
(4.45877 0.00168196 0)
(4.45907 0.00178494 -1.84653e-19)
(4.45908 0.00187899 -1.82593e-19)
(4.45882 0.00196617 -1.80547e-19)
(4.4583 0.00204918 0)
(4.45755 0.00212921 0)
(4.45656 0.00220511 0)
(4.45534 0.00227478 0)
(4.4539 0.00233741 0)
(4.45225 0.00239456 0)
(4.45041 0.00244874 0)
(4.4484 0.00250112 0)
(4.4462 0.00255076 1.62754e-19)
(4.44383 0.00259591 1.60844e-19)
(4.44129 0.00263596 0)
(4.43859 0.00267187 0)
(4.43575 0.0027054 0)
(4.43277 0.00273765 1.53333e-19)
(4.42965 0.00276837 0)
(4.4264 0.00279668 0)
(4.42302 0.00282203 0)
(4.41951 0.00284456 0)
(4.41588 0.00286488 -1.44228e-19)
(4.41215 0.00288371 0)
(4.40831 0.00290145 0)
(4.40436 0.00291825 1.38911e-19)
(4.40031 0.00293404 -1.37162e-19)
(4.39616 0.00294845 0)
(4.39191 0.00296107 -1.337e-19)
(4.38757 0.00297166 0)
(4.38313 0.00298055 1.30284e-19)
(4.37861 0.00298854 0)
(4.37401 0.00299637 0)
(4.36933 0.00300425 0)
(4.36456 0.0030117 0)
(4.35972 0.00301804 0)
(4.35479 0.00302282 -2.40605e-19)
(4.34978 0.00302627 -2.37354e-19)
(4.3447 0.00302909 0)
(4.33955 0.00303203 0)
(4.33432 0.00303539 0)
(4.32903 0.00303872 2.2456e-19)
(4.32366 0.00304138 0)
(4.31821 0.00304292 0)
(4.31269 0.00304351 0)
(4.30711 0.00304377 2.12091e-19)
(4.30145 0.00304413 -2.09023e-19)
(4.29573 0.00304461 0)
(4.28994 0.00304501 0)
(4.28407 0.00304508 -1.99935e-19)
(4.27814 0.00304456 -1.96943e-19)
(4.27213 0.0030434 0)
(4.26606 0.00304191 0)
(4.25991 0.00304047 1.88079e-19)
(4.2537 0.00303934 -1.85161e-19)
(4.24742 0.00303852 0)
(4.24106 0.00303768 0)
(4.23463 0.00303673 -1.76512e-19)
(4.22813 0.00303569 0)
(4.22154 0.00303448 0)
(4.21488 0.00303315 -1.68018e-19)
(4.20813 0.00303211 0)
(4.2013 0.0030319 -1.62439e-19)
(4.19439 0.00303259 0)
(4.18738 0.00303453 0)
(4.18026 0.00303792 0)
(4.17303 0.00304255 1.51476e-19)
(4.16568 0.00304919 0)
(4.15819 0.0030582 0)
(4.15055 0.00307036 0)
(4.14272 0.00308722 0)
(4.13468 0.00310996 0)
(4.1264 0.00314005 0)
(4.1178 0.00317982 1.32893e-19)
(4.10883 0.00323249 1.30299e-19)
(4.09939 0.00330203 0)
(4.08935 0.00339701 0)
(4.07855 0.00352391 0)
(4.06671 0.00370065 -1.20085e-19)
(4.05351 0.00395705 0)
(4.03827 0.0042754 2.30169e-19)
(4.02047 0.00496346 -2.25232e-19)
(3.99772 0.00526588 -2.20349e-19)
(3.97028 0.00852728 2.15526e-19)
(3.92418 0.00631574 -2.108e-19)
(3.87706 0.03111 2.06167e-19)
(3.71487 0.0244719 0)
(0.0327087 -0.232551 0)
(0.113009 -0.2583 0)
(0.195089 -0.261121 -2.16142e-19)
(0.278862 -0.262079 0)
(0.363617 -0.262854 2.12986e-19)
(0.449309 -0.26359 2.11417e-19)
(0.535967 -0.264282 1.04933e-19)
(0.623598 -0.264909 1.04144e-19)
(0.712191 -0.265444 0)
(0.80172 -0.265854 1.02596e-19)
(0.892157 -0.266105 0)
(0.983462 -0.26616 0)
(1.07557 -0.265984 -2.00601e-19)
(1.16841 -0.265544 -9.95295e-20)
(1.26187 -0.264809 1.97554e-19)
(1.35587 -0.263754 1.96036e-19)
(1.45028 -0.262353 9.72516e-20)
(1.54499 -0.260587 0)
(1.63985 -0.258443 0)
(1.73472 -0.255914 0)
(1.82945 -0.252998 9.42583e-20)
(1.92389 -0.249701 0)
(2.01789 -0.24603 -2.78241e-19)
(2.11131 -0.241996 0)
(2.20398 -0.23762 0)
(2.29574 -0.232928 -9.05035e-20)
(2.38649 -0.227942 0)
(2.47608 -0.22268 8.90194e-20)
(2.56438 -0.217177 1.76578e-19)
(2.65126 -0.211471 -8.75414e-20)
(2.73665 -0.205591 0)
(2.82043 -0.199563 0)
(2.9025 -0.193414 0)
(2.98281 -0.187178 1.69226e-19)
(3.0613 -0.180889 1.67767e-19)
(3.13788 -0.174573 8.31492e-20)
(3.21252 -0.168251 0)
(3.28519 -0.161948 -1.63403e-19)
(3.35586 -0.155688 0)
(3.4245 -0.149493 1.60527e-19)
(3.49111 -0.143376 0)
(3.55568 -0.137355 0)
(3.61821 -0.131449 -1.56252e-19)
(3.6787 -0.12567 0)
(3.73718 -0.120019 -4.60308e-19)
(3.79368 -0.114508 1.52029e-19)
(3.8482 -0.109152 0)
(3.90077 -0.103956 1.49244e-19)
(3.95142 -0.0989182 1.47862e-19)
(4.0002 -0.0940374 0)
(4.04714 -0.0893242 0)
(4.09227 -0.0847851 0)
(4.13563 -0.0804133 0)
(4.17728 -0.0761996 0)
(4.21726 -0.0721474 -1.3971e-19)
(4.25561 -0.0682648 -2.76761e-19)
(4.29235 -0.0645485 1.37051e-19)
(4.32755 -0.0609845 0)
(4.36128 -0.0575659 -2.68847e-19)
(4.39355 -0.0542979 1.33122e-19)
(4.42442 -0.0511843 0)
(4.45392 -0.0482155 1.30533e-19)
(4.48211 -0.0453771 0)
(4.50905 -0.0426658 0)
(4.53476 -0.0400865 2.5343e-19)
(4.55928 -0.0376388 -1.25456e-19)
(4.58266 -0.0353111 2.48415e-19)
(4.60495 -0.0330916 -2.45931e-19)
(4.6262 -0.0309787 -1.21731e-19)
(4.64644 -0.0289757 0)
(4.66568 -0.0270798 -1.19286e-19)
(4.68399 -0.0252802 0)
(4.70141 -0.0235682 0)
(4.71797 -0.0219425 0)
(4.73369 -0.0204045 -1.14491e-19)
(4.74862 -0.0189511 0)
(4.76279 -0.0175754 -2.24279e-19)
(4.77624 -0.0162741 3.32927e-19)
(4.78898 -0.0150469 1.09819e-19)
(4.80105 -0.0138927 0)
(4.81248 -0.0128061 1.0753e-19)
(4.8233 -0.0117796 0)
(4.83356 -0.0108093 2.10542e-19)
(4.84325 -0.00989644 0)
(4.85241 -0.00904117 2.06085e-19)
(4.86105 -0.00823879 -4.07757e-19)
(4.86921 -0.00748272 -2.01688e-19)
(4.87692 -0.00676864 0)
(4.8842 -0.00609718 0)
(4.89105 -0.00547098 0)
(4.89749 -0.00488706 1.93072e-19)
(4.90356 -0.00433956 0)
(4.90927 -0.00382274 -1.88852e-19)
(4.91464 -0.00333556 0)
(4.91969 -0.00288039 5.54064e-19)
(4.92441 -0.00245658 1.82628e-19)
(4.92885 -0.00205919 1.80582e-19)
(4.93301 -0.00168343 0)
(4.93692 -0.00132784 0)
(4.94058 -0.000994073 0)
(4.94399 -0.000683832 0)
(4.94717 -0.000396135 0)
(4.95014 -0.000127226 3.37191e-19)
(4.95292 0.000126726 3.33291e-19)
(4.95551 0.000366872 0)
(4.95793 0.000591731 -1.62787e-19)
(4.96017 0.000799618 -1.60876e-19)
(4.96224 0.000990961 0)
(4.96416 0.00116843 -3.14187e-19)
(4.96593 0.0013351 0)
(4.96758 0.00149256 1.53362e-19)
(4.96911 0.00164047 0)
(4.97051 0.00177775 0)
(4.97179 0.00190403 -2.95724e-19)
(4.97297 0.00202012 0)
(4.97404 0.00212754 1.44258e-19)
(4.97502 0.00222792 0)
(4.97591 0.00232234 0)
(4.97672 0.00241117 1.38938e-19)
(4.97745 0.00249426 1.37191e-19)
(4.9781 0.00257095 0)
(4.97867 0.00264068 -1.33726e-19)
(4.97918 0.00270361 0)
(4.97962 0.00276094 1.3031e-19)
(4.98 0.00281448 2.57239e-19)
(4.98034 0.00286561 0)
(4.98062 0.00291454 0)
(4.98085 0.00296037 0)
(4.98103 0.00300199 0)
(4.98116 0.00303889 2.40659e-19)
(4.98125 0.00307174 7.12218e-19)
(4.9813 0.00310211 0)
(4.98131 0.0031315 0)
(4.98129 0.00316045 0)
(4.98124 0.00318825 -2.24611e-19)
(4.98115 0.00321361 0)
(4.98102 0.00323572 0)
(4.98086 0.00325505 4.30453e-19)
(4.98067 0.00327288 2.12137e-19)
(4.98046 0.00329035 2.09072e-19)
(4.98022 0.00330775 0)
(4.97995 0.00332473 0)
(4.97965 0.00334056 1.99983e-19)
(4.97933 0.00335456 -1.96988e-19)
(4.97897 0.00336669 0)
(4.9786 0.00337792 0)
(4.97819 0.00338943 -1.88126e-19)
(4.97777 0.00340175 5.55618e-19)
(4.97732 0.00341493 0)
(4.97684 0.0034287 0)
(4.97633 0.00344253 1.76557e-19)
(4.9758 0.00345614 0)
(4.97523 0.00346993 3.4175e-19)
(4.97462 0.00348462 -1.68059e-19)
(4.97399 0.00350114 0)
(4.97331 0.00352087 1.62482e-19)
(4.97259 0.00354467 3.19431e-19)
(4.97182 0.00357347 0)
(4.97099 0.00360877 0)
(4.97009 0.00365095 -1.51518e-19)
(4.9691 0.00370259 0)
(4.968 0.00376659 2.92258e-19)
(4.96678 0.00384588 0)
(4.9654 0.00394633 0)
(4.96382 0.00407454 0)
(4.962 0.00423738 0)
(4.95986 0.00444582 -1.32932e-19)
(4.95731 0.00471505 -1.30338e-19)
(4.95425 0.00506332 0)
(4.9505 0.00552164 0)
(4.94586 0.00613347 0)
(4.93998 0.00693628 1.20123e-19)
(4.93251 0.0081342 0)
(4.92265 0.00946678 -2.30242e-19)
(4.90952 0.0125693 2.25304e-19)
(4.89174 0.013707 2.20421e-19)
(4.86562 0.025988 2.15553e-19)
(4.82946 0.0215396 2.1087e-19)
(4.77869 0.0835922 2.06065e-19)
(4.69754 0.0787317 0)
(0.0307039 -0.384271 0)
(0.110795 -0.431174 0)
(0.192587 -0.436139 2.16142e-19)
(0.276253 -0.43773 2.14574e-19)
(0.360956 -0.43906 -2.12986e-19)
(0.446662 -0.440365 -2.11418e-19)
(0.533395 -0.441631 1.70417e-23)
(0.621171 -0.442813 0)
(0.709989 -0.44386 0)
(0.799835 -0.444711 0)
(0.89068 -0.445302 0)
(0.982477 -0.445567 0)
(1.07516 -0.445445 6.01856e-19)
(1.16863 -0.444877 0)
(1.2628 -0.443808 -1.97554e-19)
(1.35755 -0.442186 -1.96036e-19)
(1.45276 -0.439969 0)
(1.54828 -0.437131 0)
(1.64398 -0.433655 0)
(1.73969 -0.429524 0)
(1.83521 -0.424731 -1.88497e-19)
(1.93042 -0.419288 0)
(2.02519 -0.413217 1.85501e-19)
(2.1193 -0.406537 0)
(2.21258 -0.39928 0)
(2.30491 -0.391491 0)
(2.39619 -0.383211 3.59148e-19)
(2.48623 -0.374481 0)
(2.57486 -0.365358 -1.76578e-19)
(2.66203 -0.355894 3.50263e-19)
(2.74767 -0.346135 0)
(2.83163 -0.336134 0)
(2.9138 -0.325949 0)
(2.99415 -0.315628 -1.69227e-19)
(3.07264 -0.305213 -1.67768e-19)
(3.14919 -0.294755 0)
(3.22373 -0.284298 0)
(3.29627 -0.273876 3.26876e-19)
(3.3668 -0.263522 3.23991e-19)
(3.43528 -0.253272 -3.21117e-19)
(3.50168 -0.243163 0)
(3.56603 -0.233216 0)
(3.62836 -0.223448 0)
(3.68865 -0.213878 0)
(3.74691 -0.20453 3.0688e-19)
(3.80317 -0.19542 3.04102e-19)
(3.85748 -0.186554 -3.01309e-19)
(3.90986 -0.177937 0)
(3.96032 -0.169582 0)
(4.00891 -0.161498 0)
(4.05568 -0.153686 0)
(4.10067 -0.146141 2.8754e-19)
(4.14391 -0.138863 0)
(4.18543 -0.131857 0)
(4.2253 -0.125124 2.79446e-19)
(4.26355 -0.118659 2.76764e-19)
(4.30024 -0.112449 0)
(4.33541 -0.10649 -5.42969e-19)
(4.36909 -0.100783 2.6885e-19)
(4.40134 -0.0953268 -2.66243e-19)
(4.43221 -0.0901112 0)
(4.46173 -0.0851223 0)
(4.48996 -0.0803538 0)
(4.51694 -0.075807 0)
(4.54271 -0.0714787 -2.53434e-19)
(4.5673 -0.0673555 -5.0185e-19)
(4.59078 -0.0634231 -2.48419e-19)
(4.61318 -0.0596757 2.45936e-19)
(4.63453 -0.0561148 0)
(4.65488 -0.0527366 -4.82037e-19)
(4.67426 -0.0495284 -4.77162e-19)
(4.69272 -0.0464765 -4.72319e-19)
(4.71029 -0.0435757 4.67507e-19)
(4.72701 -0.0408262 0)
(4.7429 -0.0382254 6.86962e-19)
(4.758 -0.0357636 0)
(4.77236 -0.0334304 -2.24287e-19)
(4.78599 -0.0312185 -2.21955e-19)
(4.79894 -0.0291248 0)
(4.81121 -0.0271449 0)
(4.82285 -0.0252711 -4.3013e-19)
(4.8339 -0.0234979 0)
(4.84438 -0.0218233 -4.21094e-19)
(4.8543 -0.0202453 0)
(4.86368 -0.0187578 4.12179e-19)
(4.87256 -0.0173514 8.15532e-19)
(4.88097 -0.0160209 0)
(4.88892 -0.0147665 0)
(4.89644 -0.0135897 0)
(4.90355 -0.0124885 3.90415e-19)
(4.91025 -0.0114547 0)
(4.91658 -0.0104793 3.81915e-19)
(4.92256 -0.00955762 0)
(4.9282 -0.00869039 0)
(4.93352 -0.00787844 -7.38766e-19)
(4.93853 -0.0071188 0)
(4.94325 -0.00640536 -3.6117e-19)
(4.9477 -0.00573335 0)
(4.9519 -0.0051017 -3.53069e-19)
(4.95585 -0.00451117 0)
(4.95956 -0.00396078 0)
(4.96305 -0.00344646 0)
(4.96633 -0.00296311 -1.0116e-18)
(4.96941 -0.00250783 -3.333e-19)
(4.97232 -0.0020809 0)
(4.97506 -0.0016837 0)
(4.97762 -0.00131592 0)
(4.98002 -0.000974523 0)
(4.98227 -0.000655198 3.14195e-19)
(4.98439 -0.000354912 -6.20901e-19)
(4.98639 -7.30644e-05 -3.06735e-19)
(4.98826 0.00018945 6.06081e-19)
(4.99001 0.000432123 5.98746e-19)
(4.99166 0.000655849 2.95733e-19)
(4.9932 0.00086275 0)
(4.99464 0.00105527 5.77039e-19)
(4.996 0.00123535 0)
(4.99727 0.00140392 -5.62811e-19)
(4.99847 0.00156115 -2.77886e-19)
(4.9996 0.0017068 0)
(5.00065 0.00184049 5.41824e-19)
(5.00164 0.00196245 2.67463e-19)
(5.00256 0.002074 0)
(5.00343 0.00217734 2.60626e-19)
(5.00425 0.00227456 -7.71737e-19)
(5.00502 0.00236663 0)
(5.00575 0.00245305 0)
(5.00644 0.00253253 0)
(5.00708 0.00260415 0)
(5.00769 0.00266824 -4.81326e-19)
(5.00826 0.00272647 -4.74827e-19)
(5.0088 0.00278106 0)
(5.00932 0.00283358 0)
(5.00981 0.00288404 0)
(5.01028 0.0029311 0)
(5.01072 0.00297315 0)
(5.01113 0.00300983 0)
(5.01152 0.00304244 -4.30469e-19)
(5.0119 0.00307298 -3.28104e-24)
(5.01225 0.00310285 0)
(5.0126 0.00313231 0)
(5.01293 0.00316065 -4.05996e-19)
(5.01324 0.00318655 0)
(5.01354 0.00320903 3.93994e-19)
(5.01382 0.0032285 3.88044e-19)
(5.01409 0.0032469 0)
(5.01435 0.00326606 0)
(5.01459 0.00328645 -3.70426e-19)
(5.01483 0.00330795 -7.29243e-19)
(5.01506 0.00333044 0)
(5.01527 0.00335308 0)
(5.01546 0.00337509 0)
(5.01564 0.00339746 -3.41765e-19)
(5.0158 0.00342218 3.36136e-19)
(5.01594 0.00345056 0)
(5.01607 0.00348432 6.49947e-19)
(5.01616 0.00352525 3.1944e-19)
(5.01623 0.00357441 -6.2789e-19)
(5.01625 0.00363417 0)
(5.01621 0.0037064 0)
(5.01611 0.00379475 -5.95283e-19)
(5.01593 0.00390511 -2.92273e-19)
(5.01564 0.00404314 0)
(5.01522 0.00421791 0)
(5.01463 0.00444158 0)
(5.01382 0.00472659 0)
(5.01272 0.00509137 -5.31742e-19)
(5.01125 0.00556355 0)
(5.0093 0.00617527 0)
(5.0067 0.006976 0)
(5.00329 0.00804573 0)
(4.99866 0.00945376 0)
(4.99273 0.0114611 0)
(4.98409 0.0140229 -4.60473e-19)
(4.97372 0.0183966 0)
(4.95641 0.0231551 0)
(4.93788 0.0361407 -8.62289e-19)
(4.90427 0.0462713 4.2155e-19)
(4.87059 0.0981773 -4.12331e-19)
(4.82556 0.129373 4.02751e-19)
(0.0277196 -0.530679 0)
(0.107483 -0.603639 -4.35515e-19)
(0.188925 -0.611386 0)
(0.272455 -0.613768 -2.14574e-19)
(0.357084 -0.615793 0)
(0.442819 -0.617839 0)
(0.529694 -0.61988 2.09919e-19)
(0.617738 -0.621844 0)
(0.706965 -0.623642 0)
(0.797369 -0.625177 0)
(0.888922 -0.626349 0)
(0.981572 -0.627058 0)
(1.07524 -0.627205 -8.02584e-19)
(1.16982 -0.626696 -3.98285e-19)
(1.26521 -0.625447 3.95248e-19)
(1.36128 -0.623385 0)
(1.45786 -0.620446 0)
(1.55478 -0.616589 0)
(1.65187 -0.611792 0)
(1.74899 -0.606038 0)
(1.84592 -0.59932 -3.77157e-19)
(1.94245 -0.591656 -3.7416e-19)
(2.03845 -0.583083 3.71167e-19)
(2.13374 -0.573637 -3.68178e-19)
(2.22811 -0.563367 0)
(2.3214 -0.552334 0)
(2.41351 -0.540605 -3.59148e-19)
(2.50428 -0.528249 0)
(2.59355 -0.515341 0)
(2.68124 -0.501956 -3.50263e-19)
(2.76725 -0.48817 -3.47396e-19)
(2.85145 -0.474062 -3.4445e-19)
(2.93379 -0.4597 0)
(3.01422 -0.445153 0)
(3.09267 -0.430493 3.35657e-19)
(3.16909 -0.41579 0)
(3.24344 -0.401093 0)
(3.31573 -0.386451 -3.26876e-19)
(3.38594 -0.371922 3.24108e-19)
(3.45402 -0.357557 -3.21228e-19)
(3.51999 -0.343387 0)
(3.5839 -0.32944 0)
(3.64573 -0.315754 -6.25209e-19)
(3.70549 -0.302365 0)
(3.7632 -0.289288 -6.139e-19)
(3.81892 -0.276534 -9.12386e-19)
(3.87267 -0.264121 9.04e-19)
(3.92447 -0.252071 -5.97125e-19)
(3.97435 -0.240393 0)
(4.02237 -0.229084 0)
(4.06859 -0.218143 -5.80589e-19)
(4.11302 -0.207578 -2.8754e-19)
(4.15569 -0.1974 0)
(4.19667 -0.187602 0)
(4.23601 -0.178171 -2.79446e-19)
(4.27377 -0.1691 -5.53596e-19)
(4.30996 -0.160393 0)
(4.34464 -0.152047 5.4297e-19)
(4.37785 -0.144053 -5.37755e-19)
(4.40965 -0.136395 5.32536e-19)
(4.44009 -0.129062 0)
(4.4692 -0.122053 0)
(4.49703 -0.115362 0)
(4.52362 -0.108979 0)
(4.54902 -0.102887 0)
(4.57328 -0.0970739 5.01851e-19)
(4.59643 -0.0915328 0)
(4.6185 -0.0862604 0)
(4.63955 -0.0812484 0)
(4.65961 -0.0764821 9.6409e-19)
(4.67872 -0.0719469 4.77163e-19)
(4.69693 -0.0676342 4.7232e-19)
(4.71425 -0.0635404 -9.35026e-19)
(4.73073 -0.0596602 4.62736e-19)
(4.7464 -0.0559826 -4.57977e-19)
(4.7613 -0.0524944 0)
(4.77546 -0.0491852 4.48571e-19)
(4.78891 -0.0460483 0)
(4.80168 -0.0430781 0)
(4.81379 -0.0402672 0)
(4.82528 -0.0376082 8.60267e-19)
(4.83618 -0.0350953 -4.25602e-19)
(4.84651 -0.0327237 -4.21102e-19)
(4.8563 -0.030486 -8.33251e-19)
(4.86556 -0.0283723 -1.23655e-18)
(4.87433 -0.0263738 -4.07768e-19)
(4.88263 -0.0244856 0)
(4.89049 -0.0227069 -7.98069e-19)
(4.89791 -0.0210358 0)
(4.90491 -0.0194647 -1.17125e-18)
(4.91154 -0.0179845 0)
(4.91779 -0.0165876 -1.14575e-18)
(4.9237 -0.0152715 0)
(4.92928 -0.0140354 0)