/*--------------------------------*- C++ -*----------------------------------*\
| =========                 |                                                 |
| \\      /  F ield         | OpenFOAM: The Open Source CFD Toolbox           |
|  \\    /   O peration     | Version:  2.1.x                                 |
|   \\  /    A nd           | Web:      www.OpenFOAM.org                      |
|    \\/     M anipulation  |                                                 |
\*---------------------------------------------------------------------------*/
FoamFile
{
    version     2.0;
    format      ascii;
    class       volSymmTensorField;
    location    "0.002";
    object      UPrime2Mean;
}
// * * * * * * * * * * * * * * * * * * * * * * * * * * * * * * * * * * * * * //

dimensions      [0 2 -2 0 0 0 0];

internalField   nonuniform List<symmTensor> 
12225
(
(0.357431 0.0104274 0 0.00886165 0 0)
(2.59628 -0.0509097 0 0.00253421 0 0)
(3.68664 -0.0177704 0 0.000226739 0 0)
(4.3991 -0.00631545 0 3.44654e-05 0 0)
(4.91044 -0.00395643 0 3.94092e-05 0 0)
(5.13181 -0.00173443 0 1.82787e-05 0 0)
(5.38515 -0.012507 0 0.000125335 0 0)
(5.28594 -0.0104837 0 0.000249194 0 0)
(5.57031 -0.0105057 0 0.000370922 0 0)
(5.40308 -0.0169393 0 0.00057409 0 0)
(5.90326 -0.0241739 0 0.000858418 0 0)
(5.91615 -0.0305776 0 0.00137446 0 0)
(6.21754 -0.0299886 0 0.00208141 0 0)
(6.71847 -0.00613956 0 0.00386429 0 0)
(7.17294 -0.300875 0 0.0257848 0 0)
(9.20476 0.546065 0 0.0847116 0 0)
(12.8854 -2.55987 0 0.782991 0 0)
(24.3017 1.99336 0 0.485794 0 0)
(0.945959 0.214716 0 0.0824358 0 0)
(0.74666 -0.10267 0 0.0636782 0 0)
(1.17017 -0.110381 0 0.0208018 0 0)
(1.67577 -0.099534 0 0.00830705 0 0)
(2.3186 -0.0731297 0 0.00362988 0 0)
(2.65874 -0.0408069 0 0.00181203 0 0)
(3.50238 -0.022327 0 0.00196068 0 0)
(2.94668 -0.0129304 0 0.00163102 0 0)
(3.5063 -0.0132056 0 0.0011154 0 0)
(3.18364 -0.0124509 0 0.00263454 0 0)
(3.46303 -0.0842627 0 0.00587932 0 0)
(3.97842 -0.0537038 0 0.0125195 0 0)
(3.02919 -0.0594057 0 0.02718 0 0)
(5.35574 -0.24964 0 0.0636129 0 0)
(3.50666 -0.0871379 0 0.122352 0 0)
(8.21713 -0.751961 0 0.310332 0 0)
(6.63566 -0.695158 0 0.337441 0 0)
(13.466 -3.17531 0 1.59867 0 0)
(1.14228 0.201628 0 0.0490615 0 0)
(0.57295 0.0343571 0 0.0748311 0 0)
(0.588247 0.0183462 0 0.0392531 0 0)
(0.563288 -0.0139098 0 0.0269479 0 0)
(0.645251 -0.0373739 0 0.0155811 0 0)
(0.705017 -0.0368165 0 0.0129571 0 0)
(1.16076 -0.068151 0 0.0167405 0 0)
(0.948501 -0.0175341 0 0.00983668 0 0)
(1.32108 -0.0487083 0 0.0116695 0 0)
(1.19033 -0.0607417 0 0.0281173 0 0)
(1.68967 -0.17265 0 0.0603141 0 0)
(1.50061 -0.143938 0 0.0978569 0 0)
(1.81115 -0.281918 0 0.176165 0 0)
(1.95252 -0.382319 0 0.240492 0 0)
(2.32067 -0.57838 0 0.382377 0 0)
(2.87359 -0.830905 0 0.590252 0 0)
(3.03245 -0.864479 0 0.64166 0 0)
(4.33522 -2.65552 0 3.29198 0 0)
(1.03901 0.140516 0 0.0326934 0 0)
(0.582213 0.0203492 0 0.0740353 0 0)
(0.6528 0.0585977 0 0.0376498 0 0)
(0.669002 0.0534603 0 0.0341337 0 0)
(0.721144 0.0360527 0 0.0199115 0 0)
(0.65003 0.00262702 0 0.0353023 0 0)
(0.632995 -0.0341513 0 0.0466914 0 0)
(0.668114 -0.0523131 0 0.0295108 0 0)
(0.741948 -0.085854 0 0.0450246 0 0)
(0.821973 -0.130398 0 0.0764529 0 0)
(1.03285 -0.224603 0 0.137265 0 0)
(1.11044 -0.258742 0 0.184903 0 0)
(1.37722 -0.346327 0 0.26548 0 0)
(1.55753 -0.411996 0 0.340275 0 0)
(1.9485 -0.643864 0 0.571982 0 0)
(1.94589 -0.578231 0 0.595707 0 0)
(2.36678 -1.1268 0 1.20059 0 0)
(2.47389 -1.50802 0 2.09847 0 0)
(1.05123 0.126469 0 0.0262833 0 0)
(0.563127 0.0262949 0 0.0515008 0 0)
(0.618995 0.0509982 0 0.0439301 0 0)
(0.691847 0.0545368 0 0.027641 0 0)
(0.712736 0.0505233 0 0.0318603 0 0)
(0.680473 0.0268987 0 0.0234549 0 0)
(0.671208 0.0250024 0 0.0365654 0 0)
(0.674085 -0.0133445 0 0.0152714 0 0)
(0.654218 -0.0361748 0 0.0351412 0 0)
(0.668748 -0.0504932 0 0.0658027 0 0)
(0.718777 -0.0751907 0 0.0983993 0 0)
(0.801039 -0.124876 0 0.123227 0 0)
(0.862518 -0.155731 0 0.202284 0 0)
(1.03812 -0.278579 0 0.319785 0 0)
(1.10964 -0.287794 0 0.362733 0 0)
(1.26073 -0.461465 0 0.661595 0 0)
(1.48654 -0.724039 0 1.02357 0 0)
(1.62646 -1.09648 0 1.93968 0 0)
(1.06811 0.0840302 0 0.0136792 0 0)
(0.565153 0.00554206 0 0.0483178 0 0)
(0.61136 0.0352401 0 0.0304489 0 0)
(0.670833 0.0602056 0 0.0298019 0 0)
(0.705344 0.0461704 0 0.0204807 0 0)
(0.681078 0.0378288 0 0.0319652 0 0)
(0.657766 0.0363593 0 0.0444879 0 0)
(0.658912 0.00245823 0 0.0365672 0 0)
(0.640692 -0.0130495 0 0.0490723 0 0)
(0.628058 -0.020372 0 0.0692381 0 0)
(0.65536 -0.027365 0 0.110422 0 0)
(0.675344 -0.045866 0 0.150208 0 0)
(0.70301 -0.0912192 0 0.2136 0 0)
(0.759313 -0.110592 0 0.256129 0 0)
(0.812354 -0.175431 0 0.408295 0 0)
(0.894409 -0.305514 0 0.609392 0 0)
(1.00491 -0.502354 0 0.948074 0 0)
(1.11024 -0.705165 0 1.96531 0 0)
(1.02453 0.0641301 0 0.00889701 0 0)
(0.542499 -0.000110673 0 0.0232882 0 0)
(0.570989 0.0169696 0 0.0285521 0 0)
(0.604179 0.0307387 0 0.0177753 0 0)
(0.620944 0.037593 0 0.0254647 0 0)
(0.597354 0.0145372 0 0.0176638 0 0)
(0.600181 0.00719013 0 0.0242834 0 0)
(0.612315 0.000221123 0 0.0164312 0 0)
(0.614451 -0.0117856 0 0.0215376 0 0)
(0.610196 -0.018058 0 0.044978 0 0)
(0.63759 -0.0301969 0 0.058862 0 0)
(0.665669 -0.0549447 0 0.0622526 0 0)
(0.703519 -0.0835638 0 0.103654 0 0)
(0.74517 -0.136087 0 0.191259 0 0)
(0.791408 -0.19363 0 0.258377 0 0)
(0.834239 -0.25186 0 0.374472 0 0)
(0.878795 -0.316007 0 0.695526 0 0)
(0.90645 -0.380609 0 1.40555 0 0)
(1.1155 0.0820923 0 0.0172939 0 0)
(0.539417 -0.00417933 0 0.0306259 0 0)
(0.562375 0.0147065 0 0.0286041 0 0)
(0.588396 0.032709 0 0.0245715 0 0)
(0.604285 0.0268244 0 0.0208395 0 0)
(0.59469 0.0157221 0 0.0203208 0 0)
(0.587811 0.0149494 0 0.0250764 0 0)
(0.586463 0.00112779 0 0.0185573 0 0)
(0.592315 -0.0106268 0 0.0223276 0 0)
(0.597152 -0.0156339 0 0.031502 0 0)
(0.611344 -0.0225957 0 0.0451802 0 0)
(0.630967 -0.03724 0 0.0602172 0 0)
(0.659481 -0.0667311 0 0.0776304 0 0)
(0.695772 -0.100923 0 0.110763 0 0)
(0.718142 -0.119106 0 0.169148 0 0)
(0.73625 -0.14559 0 0.29247 0 0)
(0.769765 -0.205624 0 0.474644 0 0)
(0.844285 -0.256544 0 0.876825 0 0)
(1.04697 0.0499702 0 0.0100315 0 0)
(0.545576 -0.00750243 0 0.0189047 0 0)
(0.560421 0.0102983 0 0.0238796 0 0)
(0.576574 0.0243057 0 0.0210455 0 0)
(0.588776 0.0246008 0 0.0213287 0 0)
(0.577867 0.0111791 0 0.0163959 0 0)
(0.570089 0.00264134 0 0.0194491 0 0)
(0.577219 -0.00490193 0 0.0190322 0 0)
(0.587754 -0.0108077 0 0.0192279 0 0)
(0.592205 -0.0196581 0 0.0293175 0 0)
(0.605659 -0.0311526 0 0.0445115 0 0)
(0.619025 -0.0449811 0 0.0431664 0 0)
(0.638243 -0.0668281 0 0.0641655 0 0)
(0.658978 -0.098386 0 0.127223 0 0)
(0.674086 -0.12493 0 0.186854 0 0)
(0.683896 -0.140214 0 0.232083 0 0)
(0.734147 -0.161317 0 0.366804 0 0)
(0.877854 -0.180264 0 0.679324 0 0)
(1.09352 0.0552058 0 0.0104337 0 0)
(0.552066 -0.0116966 0 0.0190733 0 0)
(0.553653 0.00189021 0 0.0240041 0 0)
(0.55911 0.018297 0 0.0213821 0 0)
(0.570845 0.0186439 0 0.0205982 0 0)
(0.562755 0.0025777 0 0.0185832 0 0)
(0.559987 -0.00446559 0 0.0239512 0 0)
(0.564125 -0.0119167 0 0.0231569 0 0)
(0.573985 -0.0175345 0 0.0228668 0 0)
(0.582742 -0.023023 0 0.0303651 0 0)
(0.592987 -0.0319318 0 0.0445228 0 0)
(0.604154 -0.0467488 0 0.0597556 0 0)
(0.622934 -0.0680018 0 0.0770137 0 0)
(0.639803 -0.0918802 0 0.103778 0 0)
(0.644279 -0.100815 0 0.145056 0 0)
(0.649662 -0.110142 0 0.231573 0 0)
(0.671419 -0.133999 0 0.357305 0 0)
(0.758007 -0.157602 0 0.585467 0 0)
(1.05178 0.0430559 0 0.012955 0 0)
(0.545138 -0.0109937 0 0.0153133 0 0)
(0.555904 0.00165449 0 0.0187811 0 0)
(0.554162 0.0155031 0 0.0193983 0 0)
(0.555846 0.0145471 0 0.0202029 0 0)
(0.551032 0.00347942 0 0.0202336 0 0)
(0.551099 -0.00641277 0 0.0225272 0 0)
(0.558948 -0.0145949 0 0.022937 0 0)
(0.568726 -0.0165164 0 0.0277884 0 0)
(0.574887 -0.0231838 0 0.0342831 0 0)
(0.58319 -0.0363136 0 0.0457219 0 0)
(0.592336 -0.0499183 0 0.0545653 0 0)
(0.602587 -0.0626652 0 0.0694576 0 0)
(0.610764 -0.0797674 0 0.109571 0 0)
(0.620324 -0.0976418 0 0.163198 0 0)
(0.622384 -0.106304 0 0.211832 0 0)
(0.629225 -0.106234 0 0.274266 0 0)
(0.699722 -0.11287 0 0.441797 0 0)
(1.10484 0.048536 0 0.00927511 0 0)
(0.534632 -0.0145275 0 0.0164117 0 0)
(0.53141 -0.00691101 0 0.0226386 0 0)
(0.528838 0.00427522 0 0.0222122 0 0)
(0.536361 0.00314813 0 0.0219248 0 0)
(0.539266 -0.00894246 0 0.0205305 0 0)
(0.542661 -0.018648 0 0.0234318 0 0)
(0.549125 -0.0258945 0 0.0270101 0 0)
(0.556134 -0.0310997 0 0.0314012 0 0)
(0.561929 -0.0374084 0 0.0344085 0 0)
(0.57102 -0.0472694 0 0.0467515 0 0)
(0.578671 -0.0598511 0 0.0630434 0 0)
(0.591072 -0.0748713 0 0.0746813 0 0)
(0.598014 -0.0857901 0 0.0907417 0 0)
(0.597521 -0.087959 0 0.119906 0 0)
(0.594473 -0.079528 0 0.161078 0 0)
(0.602555 -0.0779712 0 0.218022 0 0)
(0.626654 -0.0818796 0 0.396129 0 0)
(1.04614 0.047659 0 0.0118162 0 0)
(0.543141 -0.0194369 0 0.018874 0 0)
(0.541645 -0.0105782 0 0.0214888 0 0)
(0.527877 0.00302697 0 0.0225923 0 0)
(0.528672 0.0017213 0 0.023971 0 0)
(0.531231 -0.00993625 0 0.025272 0 0)
(0.535849 -0.0197188 0 0.0288242 0 0)
(0.543074 -0.0281029 0 0.0317406 0 0)
(0.550366 -0.0310734 0 0.0377356 0 0)
(0.553256 -0.0329937 0 0.0451341 0 0)
(0.558754 -0.0416158 0 0.0541575 0 0)
(0.563154 -0.0530794 0 0.0587173 0 0)
(0.567894 -0.0592099 0 0.0673519 0 0)
(0.568772 -0.0608194 0 0.086532 0 0)
(0.572467 -0.0638671 0 0.107229 0 0)
(0.576952 -0.0610309 0 0.127407 0 0)
(0.58173 -0.0538015 0 0.171595 0 0)
(0.601665 -0.0369937 0 0.26701 0 0)
(1.14132 0.0694565 0 0.0168769 0 0)
(0.557532 -0.015757 0 0.0210467 0 0)
(0.539113 -0.0116549 0 0.0231784 0 0)
(0.515971 -0.00225575 0 0.02379 0 0)
(0.516367 -0.00441073 0 0.0244661 0 0)
(0.521009 -0.0164979 0 0.0249548 0 0)
(0.526848 -0.0277996 0 0.0277199 0 0)
(0.534838 -0.0357609 0 0.0308991 0 0)
(0.540012 -0.0385196 0 0.0371723 0 0)
(0.54131 -0.0395642 0 0.0404636 0 0)
(0.544835 -0.0443886 0 0.0441529 0 0)
(0.546446 -0.0507367 0 0.050867 0 0)
(0.549915 -0.0563391 0 0.0587415 0 0)
(0.551677 -0.058395 0 0.0634553 0 0)
(0.553811 -0.0562673 0 0.073594 0 0)
(0.557897 -0.049371 0 0.0897169 0 0)
(0.562396 -0.0455469 0 0.0986943 0 0)
(0.578656 -0.0353462 0 0.12893 0 0)
(1.02518 0.0592294 0 0.0145311 0 0)
(0.570246 -0.0253611 0 0.0208502 0 0)
(0.567788 -0.0199606 0 0.0238653 0 0)
(0.539063 -0.0047786 0 0.0254868 0 0)
(0.52552 -0.00194666 0 0.0265462 0 0)
(0.521371 -0.0112156 0 0.0273966 0 0)
(0.527184 -0.0211564 0 0.030368 0 0)
(0.536844 -0.0270314 0 0.0330482 0 0)
(0.544628 -0.0258876 0 0.0372623 0 0)
(0.546711 -0.0222937 0 0.0397237 0 0)
(0.547987 -0.0229918 0 0.0430731 0 0)
(0.547151 -0.028113 0 0.044791 0 0)
(0.548277 -0.0323584 0 0.0465777 0 0)
(0.551693 -0.0325649 0 0.050846 0 0)
(0.555164 -0.0323495 0 0.0574657 0 0)
(0.559296 -0.0318674 0 0.0627658 0 0)
(0.562107 -0.0304886 0 0.0701545 0 0)
(0.569165 -0.02711 0 0.0781593 0 0)
(0.963194 0.032097 0 0.0166468 0 0)
(0.565102 -0.0145302 0 0.0200023 0 0)
(0.57082 -0.0197486 0 0.018259 0 0)
(0.542022 -0.0123683 0 0.0187391 0 0)
(0.524373 -0.00736927 0 0.0190524 0 0)
(0.517003 -0.011179 0 0.0176102 0 0)
(0.519355 -0.0178007 0 0.0171128 0 0)
(0.52596 -0.0214279 0 0.0174235 0 0)
(0.532934 -0.0204516 0 0.0203964 0 0)
(0.53634 -0.0196196 0 0.0235221 0 0)
(0.53668 -0.0216708 0 0.0275804 0 0)
(0.533762 -0.0259524 0 0.0314731 0 0)
(0.532686 -0.0292734 0 0.036399 0 0)
(0.533744 -0.0306815 0 0.0402825 0 0)
(0.53563 -0.031237 0 0.0436352 0 0)
(0.538951 -0.030626 0 0.0469944 0 0)
(0.539684 -0.0311638 0 0.0494009 0 0)
(0.544826 -0.0304718 0 0.0511868 0 0)
(1.02582 0.0123448 0 0.00967971 0 0)
(0.537162 -0.0172669 0 0.00894094 0 0)
(0.535756 -0.0157135 0 0.00831435 0 0)
(0.515479 -0.0109967 0 0.00955981 0 0)
(0.505942 -0.0113379 0 0.0109298 0 0)
(0.504369 -0.0174622 0 0.0117646 0 0)
(0.504283 -0.0239799 0 0.0134388 0 0)
(0.505371 -0.0277388 0 0.0156086 0 0)
(0.507577 -0.0277884 0 0.0190597 0 0)
(0.508643 -0.027584 0 0.0216676 0 0)
(0.508503 -0.0301223 0 0.0239624 0 0)
(0.506662 -0.0344318 0 0.0248967 0 0)
(0.507071 -0.0372379 0 0.0253527 0 0)
(0.508771 -0.037746 0 0.0252337 0 0)
(0.511294 -0.0372811 0 0.02551 0 0)
(0.514549 -0.0370254 0 0.0258474 0 0)
(0.516057 -0.0374323 0 0.0262496 0 0)
(0.520164 -0.0373321 0 0.0269321 0 0)
(1.05926 0.0445874 0 0.0105087 0 0)
(0.549683 -0.0238313 0 0.00963326 0 0)
(0.525109 -0.0192271 0 0.0101576 0 0)
(0.508552 -0.0105306 0 0.0111238 0 0)
(0.513376 -0.00997491 0 0.0120297 0 0)
(0.514353 -0.0158219 0 0.0130207 0 0)
(0.507701 -0.0215266 0 0.0147479 0 0)
(0.504848 -0.024944 0 0.0164208 0 0)
(0.507118 -0.0245825 0 0.0183149 0 0)
(0.509049 -0.0235177 0 0.0185791 0 0)
(0.509008 -0.0250446 0 0.0178266 0 0)
(0.507349 -0.0285073 0 0.0160423 0 0)
(0.508034 -0.0308502 0 0.0144711 0 0)
(0.510976 -0.0320418 0 0.0132775 0 0)
(0.514236 -0.0326477 0 0.0128899 0 0)
(0.516966 -0.0335859 0 0.0130016 0 0)
(0.517059 -0.0346285 0 0.0134995 0 0)
(0.518182 -0.0354566 0 0.0141762 0 0)
(1.12378 0.0407463 0 0.017797 0 0)
(0.552387 -0.015808 0 0.0129271 0 0)
(0.520152 -0.0187538 0 0.0117181 0 0)
(0.514157 -0.00821851 0 0.0120621 0 0)
(0.526021 -0.00305868 0 0.0130038 0 0)
(0.525215 -0.00530596 0 0.0143212 0 0)
(0.511927 -0.0112802 0 0.0160996 0 0)
(0.504251 -0.0173599 0 0.0164601 0 0)
(0.506298 -0.0193764 0 0.0154418 0 0)
(0.509703 -0.0201721 0 0.0128316 0 0)
(0.508847 -0.0230567 0 0.0101094 0 0)
(0.505224 -0.0273508 0 0.00778413 0 0)
(0.504412 -0.030281 0 0.0063898 0 0)
(0.506605 -0.0321242 0 0.0058117 0 0)
(0.509143 -0.0330305 0 0.00596689 0 0)
(0.510588 -0.0339059 0 0.00643378 0 0)
(0.509611 -0.0344497 0 0.00706887 0 0)
(0.509164 -0.0348589 0 0.00771966 0 0)
(1.01311 0.0455053 0 0.0148818 0 0)
(0.542627 -0.0242805 0 0.0179605 0 0)
(0.556701 -0.0247424 0 0.0170995 0 0)
(0.53563 -0.0105723 0 0.0167484 0 0)
(0.521683 -0.00428959 0 0.0175452 0 0)
(0.513528 -0.00701876 0 0.0187922 0 0)
(0.513527 -0.0125308 0 0.0203298 0 0)
(0.522568 -0.0154764 0 0.0208057 0 0)
(0.536876 -0.0132425 0 0.0198986 0 0)
(0.548941 -0.0108547 0 0.0167382 0 0)
(0.551401 -0.0129476 0 0.0126476 0 0)
(0.545897 -0.0187629 0 0.00869474 0 0)
(0.541329 -0.0240231 0 0.00586787 0 0)
(0.540402 -0.0280446 0 0.00434985 0 0)
(0.53908 -0.0304415 0 0.00390443 0 0)
(0.535204 -0.0321028 0 0.00400551 0 0)
(0.52853 -0.0327467 0 0.00435918 0 0)
(0.522392 -0.032962 0 0.00476152 0 0)
(0.985206 0.007393 0 0.00818731 0 0)
(0.560786 -0.00960884 0 0.00401149 0 0)
(0.572484 -0.0126587 0 0.0014835 0 0)
(0.552067 -0.016025 0 0.001098 0 0)
(0.540945 -0.0171781 0 0.00129071 0 0)
(0.534038 -0.0180593 0 0.00151514 0 0)
(0.534194 -0.0194144 0 0.00173625 0 0)
(0.545251 -0.020325 0 0.00186979 0 0)
(0.562654 -0.0196953 0 0.0020382 0 0)
(0.576401 -0.0190688 0 0.00210679 0 0)
(0.578031 -0.019192 0 0.00214396 0 0)
(0.570171 -0.0205761 0 0.00216408 0 0)
(0.563076 -0.0216163 0 0.00225212 0 0)
(0.559821 -0.0225702 0 0.00240198 0 0)
(0.555837 -0.0230114 0 0.00264293 0 0)
(0.548723 -0.0236254 0 0.0028978 0 0)
(0.538861 -0.0239725 0 0.00318581 0 0)
(0.529647 -0.0243139 0 0.00346177 0 0)
(1.08497 0.00481125 0 0.00734196 0 0)
(0.527703 -0.00623185 0 0.00301211 0 0)
(0.526908 -0.0122561 0 0.00148425 0 0)
(0.528056 -0.0170085 0 0.00122371 0 0)
(0.540295 -0.0165892 0 0.00126351 0 0)
(0.542584 -0.0159847 0 0.00115654 0 0)
(0.535007 -0.0165107 0 0.00114912 0 0)
(0.533705 -0.0169455 0 0.0012923 0 0)
(0.542377 -0.0162385 0 0.00157001 0 0)
(0.549319 -0.0157772 0 0.00173674 0 0)
(0.545474 -0.0163002 0 0.00174614 0 0)
(0.535981 -0.0178645 0 0.0016655 0 0)
(0.530583 -0.0189082 0 0.00163611 0 0)
(0.530121 -0.0196658 0 0.00168606 0 0)
(0.529968 -0.0199129 0 0.0018338 0 0)
(0.52733 -0.0202307 0 0.00201401 0 0)
(0.522372 -0.0202191 0 0.00223308 0 0)
(0.517136 -0.0201515 0 0.00244245 0 0)
(1.20598 0.0036159 0 0.00699358 0 0)
(0.547871 -0.0114004 0 0.00374337 0 0)
(0.538939 -0.0191275 0 0.00346389 0 0)
(0.581144 -0.0284562 0 0.0036332 0 0)
(0.625383 -0.0301464 0 0.0032026 0 0)
(0.629045 -0.0287423 0 0.00259304 0 0)
(0.60266 -0.0252122 0 0.0019627 0 0)
(0.584428 -0.0213103 0 0.00150957 0 0)
(0.585512 -0.0182992 0 0.00145525 0 0)
(0.588017 -0.0171281 0 0.00156986 0 0)
(0.578878 -0.017442 0 0.00152614 0 0)
(0.564534 -0.0187854 0 0.00140964 0 0)
(0.555721 -0.0195884 0 0.00133035 0 0)
(0.552854 -0.0200701 0 0.00136061 0 0)
(0.550188 -0.0198779 0 0.00148 0 0)
(0.544479 -0.0194903 0 0.00162854 0 0)
(0.536464 -0.0185342 0 0.00178118 0 0)
(0.528072 -0.0175151 0 0.00190462 0 0)
(1.06866 -0.00302277 0 0.00721116 0 0)
(0.542876 -0.0146767 0 0.006462 0 0)
(0.542086 -0.0215534 0 0.00741951 0 0)
(0.572835 -0.0290068 0 0.00544371 0 0)
(0.603534 -0.0253485 0 0.0028374 0 0)
(0.603395 -0.0196113 0 0.00175928 0 0)
(0.588634 -0.0145018 0 0.0014718 0 0)
(0.585715 -0.0102895 0 0.00186151 0 0)
(0.596744 -0.00736902 0 0.00261358 0 0)
(0.605285 -0.00699752 0 0.00260627 0 0)
(0.600121 -0.0088737 0 0.0019399 0 0)
(0.587253 -0.0114829 0 0.00132622 0 0)
(0.577676 -0.0129412 0 0.0010273 0 0)
(0.572708 -0.0136297 0 0.000978477 0 0)
(0.567054 -0.013563 0 0.00108274 0 0)
(0.558052 -0.0131692 0 0.00123596 0 0)
(0.547075 -0.0121073 0 0.0014022 0 0)
(0.535981 -0.0109362 0 0.00154515 0 0)
(1.0841 -0.00869558 0 0.00446806 0 0)
(0.535034 -0.0113788 0 0.00735684 0 0)
(0.551784 -0.0293747 0 0.0117307 0 0)
(0.610531 -0.0450127 0 0.0102383 0 0)
(0.656267 -0.0443043 0 0.00738987 0 0)
(0.663407 -0.038679 0 0.00504646 0 0)
(0.654876 -0.0309811 0 0.0030213 0 0)
(0.65445 -0.022304 0 0.00141796 0 0)
(0.663878 -0.0159597 0 0.000930122 0 0)
(0.667154 -0.0139882 0 0.00103012 0 0)
(0.653817 -0.0143664 0 0.000986412 0 0)
(0.631746 -0.0147481 0 0.000917886 0 0)
(0.613503 -0.0139563 0 0.000887455 0 0)
(0.600882 -0.0129576 0 0.000932767 0 0)
(0.588579 -0.0118423 0 0.00105144 0 0)
(0.574242 -0.0105572 0 0.00118999 0 0)
(0.559229 -0.00867493 0 0.00131911 0 0)
(0.544868 -0.00680113 0 0.00143723 0 0)
(0.956089 -0.0439099 0 0.00874801 0 0)
(0.541689 -0.0101095 0 0.0202652 0 0)
(0.579967 -0.0346709 0 0.0247709 0 0)
(0.661225 -0.0558011 0 0.0165271 0 0)
(0.71692 -0.0544166 0 0.0105525 0 0)
(0.726537 -0.0446788 0 0.00771177 0 0)
(0.721261 -0.0289577 0 0.00448445 0 0)
(0.722868 -0.0115337 0 0.0012095 0 0)
(0.7306 -0.00119144 0 0.000571797 0 0)
(0.729869 0.000471969 0 0.000723812 0 0)
(0.712486 -0.00130643 0 0.000578838 0 0)
(0.685733 -0.00226931 0 0.000503682 0 0)
(0.660747 -0.00144482 0 0.000580309 0 0)
(0.639649 -0.000736416 0 0.000714533 0 0)
(0.618885 -0.000583486 0 0.000860799 0 0)
(0.59761 -0.000251383 0 0.00103115 0 0)
(0.576938 0.000708038 0 0.00124318 0 0)
(0.557912 0.00185241 0 0.00146668 0 0)
(1.09177 -0.0780838 0 0.011057 0 0)
(0.540955 -0.0275535 0 0.0363886 0 0)
(0.606897 -0.0637535 0 0.0416184 0 0)
(0.736564 -0.088448 0 0.0309327 0 0)
(0.806886 -0.0890032 0 0.0250266 0 0)
(0.806607 -0.0772073 0 0.0206202 0 0)
(0.778186 -0.0523712 0 0.0134753 0 0)
(0.750903 -0.0228045 0 0.0045539 0 0)
(0.729723 -0.00509328 0 0.000692393 0 0)
(0.708763 -0.000636934 0 0.000276179 0 0)
(0.68186 -0.00100979 0 0.000308569 0 0)
(0.651867 0.000169466 0 0.000429233 0 0)
(0.626277 0.00261877 0 0.000599729 0 0)
(0.60534 0.00403549 0 0.000792927 0 0)
(0.587178 0.00427904 0 0.000928299 0 0)
(0.570464 0.00460603 0 0.00108144 0 0)
(0.554783 0.00527713 0 0.00128821 0 0)
(0.540202 0.00639987 0 0.00154268 0 0)
(1.05392 -0.0882412 0 0.0175886 0 0)
(0.556811 -0.0359567 0 0.0588636 0 0)
(0.626693 -0.0635846 0 0.0526528 0 0)
(0.685821 -0.071141 0 0.0346488 0 0)
(0.648211 -0.0516986 0 0.02781 0 0)
(0.581259 -0.024684 0 0.023299 0 0)
(0.538867 -0.00297505 0 0.0148578 0 0)
(0.520911 0.00498383 0 0.00529527 0 0)
(0.509773 0.00380791 0 0.00152412 0 0)
(0.499099 0.00244228 0 0.00104902 0 0)
(0.4875 0.00236255 0 0.000888776 0 0)
(0.477708 0.00310985 0 0.00105602 0 0)
(0.469388 0.00323392 0 0.00124166 0 0)
(0.461348 0.00360317 0 0.00140668 0 0)
(0.455021 0.00398884 0 0.00145707 0 0)
(0.447782 0.00453032 0 0.00153313 0 0)
(0.442264 0.00543213 0 0.00174622 0 0)
(0.435168 0.00648779 0 0.0020745 0 0)
(1.04534 -0.180596 0 0.0517268 0 0)
(0.544576 0.0209012 0 0.098672 0 0)
(0.621599 0.0619294 0 0.0689953 0 0)
(0.688312 0.0845915 0 0.0407178 0 0)
(0.904802 0.100179 0 0.0240923 0 0)
(1.23319 0.0820068 0 0.0130866 0 0)
(1.51569 0.0384642 0 0.00536542 0 0)
(1.63849 -0.00240059 0 0.00148908 0 0)
(1.62621 -0.0179891 0 0.000572437 0 0)
(1.55709 -0.0150412 0 0.000443975 0 0)
(1.47164 -0.00735295 0 0.000391079 0 0)
(1.41659 -0.00703557 0 0.000490625 0 0)
(1.33439 -0.00878626 0 0.000489096 0 0)
(1.28659 -0.00984659 0 0.000598906 0 0)
(1.20484 -0.0101429 0 0.000606631 0 0)
(1.15915 -0.00833936 0 0.000699745 0 0)
(1.0903 -0.0076779 0 0.000830352 0 0)
(1.04591 -0.00743275 0 0.000929296 0 0)
(0.591885 -0.0443371 0 0.0135628 0 0)
(1.7165 0.0952637 0 0.0103708 0 0)
(2.9722 0.0629399 0 0.00255353 0 0)
(3.97552 0.0216715 0 0.000300103 0 0)
(4.82299 -0.0106081 0 0.000123462 0 0)
(5.30002 -0.0263519 0 0.000193131 0 0)
(5.43619 -0.0242398 0 0.000154252 0 0)
(5.37278 -0.0145134 0 0.0001124 0 0)
(5.25083 -0.00582537 0 0.000118546 0 0)
(5.14067 -0.000412705 0 0.000143071 0 0)
(5.05989 0.000124936 0 0.000158815 0 0)
(4.99165 -0.00127582 0 0.00016674 0 0)
(4.90949 -0.00286243 0 0.000167519 0 0)
(4.83774 -0.00370858 0 0.000198933 0 0)
(4.73837 -0.00252684 0 0.000198911 0 0)
(4.67713 -0.00318956 0 0.000299878 0 0)
(4.59071 0.00175546 0 0.000249944 0 0)
(4.51593 -0.00419861 0 0.000462272 0 0)
(0.000196991 -0.000388641 0 0.000767205 0 0)
(0.00138879 -0.000889356 0 0.000570447 0 0)
(0.00342087 -0.00134456 0 0.000528982 0 0)
(0.00633652 -0.00178518 0 0.000503292 0 0)
(0.0100672 -0.00218933 0 0.000476451 0 0)
(0.0145462 -0.00254849 0 0.000446878 0 0)
(0.0196892 -0.00285643 1.84235e-20 0.000414896 -2.66107e-21 4.94395e-36)
(0.0253988 -0.00310856 -2.07117e-20 0.000381136 2.52449e-21 4.86968e-36)
(0.0315677 -0.00330209 0 0.000346351 0 0)
(0.0380818 -0.00343612 -2.48609e-20 0.000311333 2.23095e-21 4.7233e-36)
(0.0448233 -0.00351148 0 0.000276836 0 0)
(0.0516744 -0.00353055 0 0.000243525 0 0)
(0.0585212 -0.00349726 0 0.000211984 0 0)
(0.0652578 -0.0034173 3.12699e-20 0.000182731 -1.60784e-21 4.439e-36)
(0.0717878 -0.00329753 0 0.000156154 0 0)
(0.0780258 -0.00314496 0 0.000132449 0 0)
(0.0839026 -0.00296698 -3.43561e-20 0.000111687 1.16305e-21 4.23313e-36)
(0.0893677 -0.00277215 0 9.38934e-05 0 0)
(0.0943793 -0.00256837 0 7.89487e-05 0 0)
(0.0989038 -0.00236083 0 6.65522e-05 0 0)
(0.102939 -0.00215473 3.6342e-20 5.64105e-05 -6.676e-22 3.96838e-36)
(0.106506 -0.00195782 0 4.83151e-05 0 0)
(0.109608 -0.00177588 3.65554e-20 4.1972e-05 -4.75818e-22 3.84017e-36)
(0.112248 -0.00160913 0 3.69786e-05 0 0)
(0.114474 -0.0014579 0 3.30211e-05 0 0)
(0.116353 -0.00132692 3.61233e-20 2.99105e-05 -2.61934e-22 3.65308e-36)
(0.117904 -0.00121954 0 2.74457e-05 0 0)
(0.119138 -0.00113185 -3.54511e-20 2.53884e-05 1.64976e-22 3.53183e-36)
(0.120128 -0.0010582 0 2.35726e-05 0 0)
(0.12096 -0.00100102 3.45632e-20 2.1947e-05 -1.02602e-22 3.41337e-36)
(0.121634 -0.000966224 0 2.04786e-05 0 0)
(0.122144 -0.000948388 0 1.90966e-05 0 0)
(0.122574 -0.000936027 0 1.77511e-05 0 0)
(0.123 -0.0009305 0 1.64635e-05 0 0)
(0.123398 -0.00094029 0 1.52862e-05 0 0)
(0.123749 -0.00096077 -3.12772e-20 1.42325e-05 5.45929e-23 3.07472e-36)
(0.124126 -0.000980043 0 1.32686e-05 0 0)
(0.124584 -0.000998974 6.02913e-20 1.24076e-05 -1.40562e-22 1.18696e-35)
(0.125083 -0.00102615 0 1.17347e-05 0 0)
(0.125602 -0.00105873 -5.81137e-20 1.12735e-05 1.83519e-22 1.14513e-35)
(0.126196 -0.00108645 0 1.09357e-05 0 0)
(0.126898 -0.00110964 0 1.06954e-05 0 0)
(0.12767 -0.0011365 5.50896e-20 1.06553e-05 -2.66039e-22 1.08444e-35)
(0.128483 -0.00116655 0 1.08428e-05 0 0)
(0.129378 -0.0011914 5.32848e-20 1.1121e-05 -3.21571e-22 1.04534e-35)
(0.130381 -0.00120963 -5.24433e-20 1.14114e-05 3.49886e-22 1.0262e-35)
(0.131458 -0.00122819 0 1.18172e-05 0 0)
(0.132577 -0.00124938 -5.08971e-20 1.24012e-05 3.98069e-22 9.88709e-36)
(0.13376 -0.00126718 -5.01949e-20 1.3028e-05 4.20983e-22 9.70362e-36)
(0.135036 -0.0012783 0 1.35718e-05 0 0)
(0.136384 -0.00128741 0 1.4108e-05 0 0)
(0.137768 -0.00129872 0 1.47464e-05 0 0)
(0.139194 -0.00130936 0 1.54138e-05 0 0)
(0.140689 -0.00131489 0 1.59598e-05 0 0)
(0.142248 -0.00131668 4.68198e-20 1.63928e-05 -5.21541e-22 8.65736e-36)
(0.143843 -0.00131918 0 1.68363e-05 0 0)
(0.145463 -0.00132284 -4.59839e-20 1.73074e-05 5.38565e-22 8.32896e-36)
(0.147127 -0.00132415 0 1.76923e-05 0 0)
(0.148842 -0.00132178 0 1.7936e-05 0 0)
(0.150592 -0.0013184 4.49555e-20 1.81173e-05 -5.54751e-22 7.85487e-36)
(0.152361 -0.00131618 0 1.83059e-05 0 0)
(0.154154 -0.00131378 -4.4396e-20 1.84589e-05 5.56416e-22 7.55089e-36)
(0.155984 -0.00130902 0 1.85048e-05 0 0)
(0.157845 -0.0013024 0 1.84614e-05 0 0)
(0.159725 -0.00129606 0 1.83989e-05 0 0)
(0.161618 -0.00129051 4.35098e-20 1.83329e-05 -5.4996e-22 6.97108e-36)
(0.163533 -0.00128428 0 1.82177e-05 0 0)
(0.165474 -0.00127647 0 1.80289e-05 0 0)
(0.167434 -0.00126813 4.30048e-20 1.78048e-05 -5.36037e-22 6.56011e-36)
(0.169404 -0.00126051 0 1.75852e-05 0 0)
(0.171386 -0.00125332 4.27206e-20 1.736e-05 -5.24067e-22 6.29712e-36)
(0.173386 -0.00124555 0 1.71004e-05 0 0)
(0.175404 -0.00123719 0 1.68111e-05 0 0)
(0.177433 -0.00122926 0 1.65259e-05 0 0)
(0.17947 -0.00122225 -4.22437e-20 1.62579e-05 4.97282e-22 5.79663e-36)
(0.181518 -0.00121538 0 1.59843e-05 0 0)
(0.183578 -0.00120761 0 1.56786e-05 0 0)
(0.185648 -0.00119773 -4.19366e-20 1.53117e-05 4.75447e-22 5.44276e-36)
(0.187726 -0.00118676 -4.18397e-20 1.49147e-05 4.67298e-22 5.32876e-36)
(0.189812 -0.00117507 0 1.44977e-05 0 0)
(0.191911 -0.00116199 -4.16531e-20 1.4046e-05 4.49423e-22 5.10655e-36)
(0.194027 -0.0011472 0 1.35575e-05 0 0)
(0.196153 -0.00113161 -8.29346e-20 1.30595e-05 8.63992e-22 1.95675e-35)
(0.198286 -0.00111659 0 1.25851e-05 0 0)
(0.200426 -0.00110261 -8.25658e-20 1.21413e-05 8.27397e-22 1.87382e-35)
(0.202576 -0.0010889 0 1.171e-05 0 0)
(0.204741 -0.00107542 8.21995e-20 1.1292e-05 -7.89146e-22 1.79375e-35)
(0.20692 -0.00106248 0 1.08956e-05 0 0)
(0.209108 -0.00105094 0 1.05372e-05 0 0)
(0.211304 -0.00104115 0 1.02182e-05 0 0)
(0.213512 -0.00103251 -8.14259e-20 9.92494e-06 7.22324e-22 1.64185e-35)
(0.215736 -0.00102435 0 9.64454e-06 0 0)
(0.217977 -0.00101641 8.10241e-20 9.37411e-06 -6.89554e-22 1.56988e-35)
(0.220229 -0.00100983 0 9.13425e-06 0 0)
(0.222492 -0.0010044 -8.06018e-20 8.91786e-06 6.59446e-22 1.50045e-35)
(0.224768 -0.000999188 -8.03856e-20 8.70778e-06 6.44612e-22 1.46667e-35)
(0.227064 -0.000993835 -8.01652e-20 8.49845e-06 6.30369e-22 1.4335e-35)
(0.229379 -0.000988358 0 8.29143e-06 0 0)
(0.231712 -0.000983144 0 8.09339e-06 0 0)
(0.234062 -0.000978683 0 7.911e-06 0 0)
(0.23643 -0.000975136 0 7.74511e-06 0 0)
(0.238819 -0.000972185 0 7.5898e-06 0 0)
(0.241233 -0.000969301 0 7.43744e-06 0 0)
(0.243671 -0.00096629 0 7.28604e-06 0 0)
(0.246132 -0.000963432 0 7.13993e-06 0 0)
(0.248615 -0.00096112 7.7956e-20 7.00389e-06 -5.27706e-22 1.16089e-35)
(0.251124 -0.000959466 7.76875e-20 6.8784e-06 -5.18033e-22 1.13332e-35)
(0.253659 -0.00095833 0 6.76107e-06 0 0)
(0.256224 -0.000957452 0 6.64852e-06 0 0)
(0.258817 -0.000956633 0 6.53851e-06 0 0)
(0.26144 -0.000955968 7.65686e-20 6.43236e-06 -4.81169e-22 1.02812e-35)
(0.264091 -0.000955592 0 6.33137e-06 0 0)
(0.266774 -0.000955543 0 6.23552e-06 0 0)
(0.269489 -0.000955826 0 6.14467e-06 0 0)
(0.272238 -0.00095643 0 6.05867e-06 0 0)
(0.275022 -0.000957307 -7.50607e-20 5.97696e-06 4.41298e-22 9.07439e-36)
(0.277841 -0.00095843 0 5.89921e-06 0 0)
(0.280695 -0.000959743 0 5.82459e-06 0 0)
(0.283586 -0.000961123 7.40992e-20 5.75151e-06 -4.19834e-22 8.4044e-36)
(0.286515 -0.000962555 -7.37693e-20 5.67979e-06 4.13182e-22 8.18967e-36)
(0.289485 -0.000964121 0 5.61027e-06 0 0)
(0.292494 -0.000965978 -7.30961e-20 5.54457e-06 4.0019e-22 7.77267e-36)
(0.295544 -0.000968206 0 5.48345e-06 0 0)
(0.298636 -0.000970714 7.24059e-20 5.4259e-06 -3.87039e-22 7.37187e-36)
(0.30177 -0.000973356 0 5.37036e-06 0 0)
(0.304949 -0.000976015 0 5.31559e-06 0 0)
(0.308173 -0.000978677 0 5.26131e-06 0 0)
(0.311444 -0.00098141 0 5.20811e-06 0 0)
(0.314761 -0.000984312 0 5.15695e-06 0 0)
(0.318128 -0.000987435 -1.40437e-19 5.10839e-06 7.03346e-22 2.50463e-35)
(0.321543 -0.00099074 -1.39677e-19 5.06214e-06 6.91714e-22 2.43572e-35)
(0.325008 -0.00099412 0 5.0171e-06 0 0)
(0.328524 -0.000997461 0 4.97212e-06 0 0)
(0.332092 -0.00100077 0 4.92716e-06 0 0)
(0.335713 -0.0010041 1.36532e-19 4.88264e-06 -6.48984e-22 2.17387e-35)
(0.339389 -0.0010075 0 4.83905e-06 0 0)
(0.34312 -0.001011 0 4.79689e-06 0 0)
(0.346907 -0.00101457 0 4.7558e-06 0 0)
(0.35075 -0.00101815 1.33234e-19 4.71545e-06 -6.07939e-22 1.93298e-35)
(0.354651 -0.00102175 -1.32383e-19 4.67572e-06 5.97826e-22 1.87588e-35)
(0.358609 -0.00102536 0 4.63623e-06 0 0)
(0.362628 -0.00102891 0 4.59643e-06 0 0)
(0.366708 -0.0010324 -1.29766e-19 4.5564e-06 5.69305e-22 1.71174e-35)
(0.37085 -0.00103589 -1.28872e-19 4.51687e-06 5.59582e-22 1.65936e-35)
(0.375055 -0.00103942 0 4.47821e-06 0 0)
(0.379322 -0.00104297 0 4.44034e-06 0 0)
(0.383653 -0.00104651 1.26121e-19 4.4029e-06 -5.30854e-22 1.50891e-35)
(0.38805 -0.00104996 -1.2518e-19 4.3651e-06 5.21712e-22 1.46094e-35)
(0.392512 -0.00105325 0 4.32639e-06 0 0)
(0.397042 -0.00105635 0 4.28648e-06 0 0)
(0.40164 -0.00105927 -1.22281e-19 4.24573e-06 4.94983e-22 1.32331e-35)
(0.406306 -0.00106208 0 4.20469e-06 0 0)
(0.411042 -0.0010648 0 4.16382e-06 0 0)
(0.415846 -0.0010675 -1.19272e-19 4.12371e-06 4.67656e-22 1.19477e-35)
(0.420721 -0.0010701 0 4.08353e-06 0 0)
(0.425666 -0.00107244 -1.17197e-19 4.04224e-06 4.49739e-22 1.11391e-35)
(0.430681 -0.00107452 0 3.99979e-06 0 0)
(0.435768 -0.00107614 0 3.95483e-06 0 0)
(0.440926 -0.00107718 0 3.90679e-06 0 0)
(0.446153 -0.00107766 1.12874e-19 3.85626e-06 -4.14045e-22 9.63247e-36)
(0.451449 -0.00107739 0 3.80209e-06 0 0)
(0.45681 -0.00107629 0 3.74421e-06 0 0)
(0.462234 -0.00107419 0 3.6817e-06 0 0)
(0.467716 -0.00107062 0 3.61183e-06 0 0)
(0.473252 -0.00106521 0 3.53309e-06 0 0)
(0.478834 -0.0010577 0 3.44428e-06 0 0)
(0.484452 -0.00104694 1.04682e-19 3.33974e-06 -3.44974e-22 7.32742e-36)
(0.490093 -0.00103257 1.03434e-19 3.2192e-06 -3.32738e-22 7.03052e-36)
(0.495738 -0.00101312 0 3.07606e-06 0 0)