# vtk DataFile Version 2.0
sampleSurface
ASCII
DATASET POLYDATA
POINTS 502 float
-0.0206 0 -0.0005
-0.0190172 0 -0.0005
-0.0190172 0 0.0005
-0.0206 0 0.0005
-0.0174976 0 -0.0005
-0.0174976 0 0.0005
-0.0160387 0 -0.0005
-0.0160387 0 0.0005
-0.0146381 0 -0.0005
-0.0146381 0 0.0005
-0.0132934 0 -0.0005
-0.0132934 0 0.0005
-0.0120025 0 -0.0005
-0.0120025 0 0.0005
-0.0107632 0 -0.0005
-0.0107632 0 0.0005
-0.00957337 0 -0.0005
-0.00957337 0 0.0005
-0.00843108 0 -0.0005
-0.00843108 0 0.0005
-0.00733443 0 -0.0005
-0.00733443 0 0.0005
-0.0062816 0 -0.0005
-0.0062816 0 0.0005
-0.00527083 0 -0.0005
-0.00527083 0 0.0005
-0.00430044 0 -0.0005
-0.00430044 0 0.0005
-0.00336883 0 -0.0005
-0.00336883 0 0.0005
-0.00247443 0 -0.0005
-0.00247443 0 0.0005
-0.00161577 0 -0.0005
-0.00161577 0 0.0005
-0.000791418 0 -0.0005
-0.000791418 0 0.0005
0 0 -0.0005
0 0 0.0005
0 -0.005 -0.0005
0 -0.005 0.0005
0 -0.00423364 0.0005
0 -0.00423364 -0.0005
0 -0.00353089 0.0005
0 -0.00353089 -0.0005
0 -0.00288647 0.0005
0 -0.00288647 -0.0005
0 -0.00229553 0.0005
0 -0.00229553 -0.0005
0 -0.00175363 0.0005
0 -0.00175363 -0.0005
0 -0.00125671 0.0005
0 -0.00125671 -0.0005
0 -0.000801036 0.0005
0 -0.000801036 -0.0005
0 -0.000383178 0.0005
0 -0.000383178 -0.0005
0 -0.0254 -0.0005
0 -0.0254 0.0005
0 -0.0242667 0.0005
0 -0.0242667 -0.0005
0 -0.0231333 0.0005
0 -0.0231333 -0.0005
0 -0.022 0.0005
0 -0.022 -0.0005
0 -0.0208667 0.0005
0 -0.0208667 -0.0005
0 -0.0197333 0.0005
0 -0.0197333 -0.0005
0 -0.0186 0.0005
0 -0.0186 -0.0005
0 -0.0174667 0.0005
0 -0.0174667 -0.0005
0 -0.0163333 0.0005
0 -0.0163333 -0.0005
0 -0.0152 0.0005
0 -0.0152 -0.0005
0 -0.0140667 0.0005
0 -0.0140667 -0.0005
0 -0.0129333 0.0005
0 -0.0129333 -0.0005
0 -0.0118 0.0005
0 -0.0118 -0.0005
0 -0.0106667 0.0005
0 -0.0106667 -0.0005
0 -0.00953333 0.0005
0 -0.00953333 -0.0005
0 -0.0084 0.0005
0 -0.0084 -0.0005
0 -0.00726667 0.0005
0 -0.00726667 -0.0005
0 -0.00613333 0.0005
0 -0.00613333 -0.0005
0.000528387 -0.0254 -0.0005
0.000528387 -0.0254 0.0005
0.00106088 -0.0254 -0.0005
0.00106088 -0.0254 0.0005
0.00159752 -0.0254 -0.0005
0.00159752 -0.0254 0.0005
0.00213833 -0.0254 -0.0005
0.00213833 -0.0254 0.0005
0.00268334 -0.0254 -0.0005
0.00268334 -0.0254 0.0005
0.00323259 -0.0254 -0.0005
0.00323259 -0.0254 0.0005
0.00378611 -0.0254 -0.0005
0.00378611 -0.0254 0.0005
0.00434393 -0.0254 -0.0005
0.00434393 -0.0254 0.0005
0.00490609 -0.0254 -0.0005
0.00490609 -0.0254 0.0005
0.00547262 -0.0254 -0.0005
0.00547262 -0.0254 0.0005
0.00604356 -0.0254 -0.0005
0.00604356 -0.0254 0.0005
0.00661893 -0.0254 -0.0005
0.00661893 -0.0254 0.0005
0.00719878 -0.0254 -0.0005
0.00719878 -0.0254 0.0005
0.00778313 -0.0254 -0.0005
0.00778313 -0.0254 0.0005
0.00837203 -0.0254 -0.0005
0.00837203 -0.0254 0.0005
0.00896551 -0.0254 -0.0005
0.00896551 -0.0254 0.0005
0.0095636 -0.0254 -0.0005
0.0095636 -0.0254 0.0005
0.0101663 -0.0254 -0.0005
0.0101663 -0.0254 0.0005
0.0107738 -0.0254 -0.0005
0.0107738 -0.0254 0.0005
0.0113859 -0.0254 -0.0005
0.0113859 -0.0254 0.0005
0.0120028 -0.0254 -0.0005
0.0120028 -0.0254 0.0005
0.0126245 -0.0254 -0.0005
0.0126245 -0.0254 0.0005
0.0132511 -0.0254 -0.0005
0.0132511 -0.0254 0.0005
0.0138825 -0.0254 -0.0005
0.0138825 -0.0254 0.0005
0.0145188 -0.0254 -0.0005
0.0145188 -0.0254 0.0005
0.0151601 -0.0254 -0.0005
0.0151601 -0.0254 0.0005
0.0158063 -0.0254 -0.0005
0.0158063 -0.0254 0.0005
0.0164576 -0.0254 -0.0005
0.0164576 -0.0254 0.0005
0.0171139 -0.0254 -0.0005
0.0171139 -0.0254 0.0005
0.0177754 -0.0254 -0.0005
0.0177754 -0.0254 0.0005
0.018442 -0.0254 -0.0005
0.018442 -0.0254 0.0005
0.0191137 -0.0254 -0.0005
0.0191137 -0.0254 0.0005
0.0197907 -0.0254 -0.0005
0.0197907 -0.0254 0.0005
0.020473 -0.0254 -0.0005
0.020473 -0.0254 0.0005
0.0211606 -0.0254 -0.0005
0.0211606 -0.0254 0.0005
0.0218535 -0.0254 -0.0005
0.0218535 -0.0254 0.0005
0.0225517 -0.0254 -0.0005
0.0225517 -0.0254 0.0005
0.0232555 -0.0254 -0.0005
0.0232555 -0.0254 0.0005
0.0239647 -0.0254 -0.0005
0.0239647 -0.0254 0.0005
0.0246794 -0.0254 -0.0005
0.0246794 -0.0254 0.0005
0.0253996 -0.0254 -0.0005
0.0253996 -0.0254 0.0005
0.0261255 -0.0254 -0.0005
0.0261255 -0.0254 0.0005
0.026857 -0.0254 -0.0005
0.026857 -0.0254 0.0005
0.0275942 -0.0254 -0.0005
0.0275942 -0.0254 0.0005
0.0283371 -0.0254 -0.0005
0.0283371 -0.0254 0.0005
0.0290858 -0.0254 -0.0005
0.0290858 -0.0254 0.0005
0.0298403 -0.0254 -0.0005
0.0298403 -0.0254 0.0005
0.0306007 -0.0254 -0.0005
0.0306007 -0.0254 0.0005
0.031367 -0.0254 -0.0005
0.031367 -0.0254 0.0005
0.0321393 -0.0254 -0.0005
0.0321393 -0.0254 0.0005
0.0329175 -0.0254 -0.0005
0.0329175 -0.0254 0.0005
0.0337019 -0.0254 -0.0005
0.0337019 -0.0254 0.0005
0.0344923 -0.0254 -0.0005
0.0344923 -0.0254 0.0005
0.0352888 -0.0254 -0.0005
0.0352888 -0.0254 0.0005
0.0360916 -0.0254 -0.0005
0.0360916 -0.0254 0.0005
0.0369006 -0.0254 -0.0005
0.0369006 -0.0254 0.0005
0.0377158 -0.0254 -0.0005
0.0377158 -0.0254 0.0005
0.0385375 -0.0254 -0.0005
0.0385375 -0.0254 0.0005
0.0393655 -0.0254 -0.0005
0.0393655 -0.0254 0.0005
0.0401999 -0.0254 -0.0005
0.0401999 -0.0254 0.0005
0.0410408 -0.0254 -0.0005
0.0410408 -0.0254 0.0005
0.0418883 -0.0254 -0.0005
0.0418883 -0.0254 0.0005
0.0427424 -0.0254 -0.0005
0.0427424 -0.0254 0.0005
0.0436031 -0.0254 -0.0005
0.0436031 -0.0254 0.0005
0.0444704 -0.0254 -0.0005
0.0444704 -0.0254 0.0005
0.0453446 -0.0254 -0.0005
0.0453446 -0.0254 0.0005
0.0462255 -0.0254 -0.0005
0.0462255 -0.0254 0.0005
0.0471133 -0.0254 -0.0005
0.0471133 -0.0254 0.0005
0.048008 -0.0254 -0.0005
0.048008 -0.0254 0.0005
0.0489096 -0.0254 -0.0005
0.0489096 -0.0254 0.0005
0.0498183 -0.0254 -0.0005
0.0498183 -0.0254 0.0005
0.050734 -0.0254 -0.0005
0.050734 -0.0254 0.0005
0.0516568 -0.0254 -0.0005
0.0516568 -0.0254 0.0005
0.0525868 -0.0254 -0.0005
0.0525868 -0.0254 0.0005
0.053524 -0.0254 -0.0005
0.053524 -0.0254 0.0005
0.0544686 -0.0254 -0.0005
0.0544686 -0.0254 0.0005
0.0554204 -0.0254 -0.0005
0.0554204 -0.0254 0.0005
0.0563797 -0.0254 -0.0005
0.0563797 -0.0254 0.0005
0.0573464 -0.0254 -0.0005
0.0573464 -0.0254 0.0005
0.0583206 -0.0254 -0.0005
0.0583206 -0.0254 0.0005
0.0593025 -0.0254 -0.0005
0.0593025 -0.0254 0.0005
0.0602919 -0.0254 -0.0005
0.0602919 -0.0254 0.0005
0.0612891 -0.0254 -0.0005
0.0612891 -0.0254 0.0005
0.0622939 -0.0254 -0.0005
0.0622939 -0.0254 0.0005
0.0633067 -0.0254 -0.0005
0.0633067 -0.0254 0.0005
0.0643272 -0.0254 -0.0005
0.0643272 -0.0254 0.0005
0.0653557 -0.0254 -0.0005
0.0653557 -0.0254 0.0005
0.0663923 -0.0254 -0.0005
0.0663923 -0.0254 0.0005
0.0674368 -0.0254 -0.0005
0.0674368 -0.0254 0.0005
0.0684895 -0.0254 -0.0005
0.0684895 -0.0254 0.0005
0.0695504 -0.0254 -0.0005
0.0695504 -0.0254 0.0005
0.0706195 -0.0254 -0.0005
0.0706195 -0.0254 0.0005
0.0716969 -0.0254 -0.0005
0.0716969 -0.0254 0.0005
0.0727828 -0.0254 -0.0005
0.0727828 -0.0254 0.0005
0.073877 -0.0254 -0.0005
0.073877 -0.0254 0.0005
0.0749798 -0.0254 -0.0005
0.0749798 -0.0254 0.0005
0.0760911 -0.0254 -0.0005
0.0760911 -0.0254 0.0005
0.0772111 -0.0254 -0.0005
0.0772111 -0.0254 0.0005
0.0783398 -0.0254 -0.0005
0.0783398 -0.0254 0.0005
0.0794772 -0.0254 -0.0005
0.0794772 -0.0254 0.0005
0.0806235 -0.0254 -0.0005
0.0806235 -0.0254 0.0005
0.0817787 -0.0254 -0.0005
0.0817787 -0.0254 0.0005
0.0829429 -0.0254 -0.0005
0.0829429 -0.0254 0.0005
0.0841162 -0.0254 -0.0005
0.0841162 -0.0254 0.0005
0.0852985 -0.0254 -0.0005
0.0852985 -0.0254 0.0005
0.0864901 -0.0254 -0.0005
0.0864901 -0.0254 0.0005
0.0876909 -0.0254 -0.0005
0.0876909 -0.0254 0.0005
0.0889011 -0.0254 -0.0005
0.0889011 -0.0254 0.0005
0.0901207 -0.0254 -0.0005
0.0901207 -0.0254 0.0005
0.0913497 -0.0254 -0.0005
0.0913497 -0.0254 0.0005
0.0925883 -0.0254 -0.0005
0.0925883 -0.0254 0.0005
0.0938366 -0.0254 -0.0005
0.0938366 -0.0254 0.0005
0.0950945 -0.0254 -0.0005
0.0950945 -0.0254 0.0005
0.0963622 -0.0254 -0.0005
0.0963622 -0.0254 0.0005
0.0976398 -0.0254 -0.0005
0.0976398 -0.0254 0.0005
0.0989273 -0.0254 -0.0005
0.0989273 -0.0254 0.0005
0.100225 -0.0254 -0.0005
0.100225 -0.0254 0.0005
0.101532 -0.0254 -0.0005
0.101532 -0.0254 0.0005
0.10285 -0.0254 -0.0005
0.10285 -0.0254 0.0005
0.104178 -0.0254 -0.0005
0.104178 -0.0254 0.0005
0.105517 -0.0254 -0.0005
0.105517 -0.0254 0.0005
0.106865 -0.0254 -0.0005
0.106865 -0.0254 0.0005
0.108225 -0.0254 -0.0005
0.108225 -0.0254 0.0005
0.109594 -0.0254 -0.0005
0.109594 -0.0254 0.0005
0.110975 -0.0254 -0.0005
0.110975 -0.0254 0.0005
0.112366 -0.0254 -0.0005
0.112366 -0.0254 0.0005
0.113768 -0.0254 -0.0005
0.113768 -0.0254 0.0005
0.115181 -0.0254 -0.0005
0.115181 -0.0254 0.0005
0.116605 -0.0254 -0.0005
0.116605 -0.0254 0.0005
0.11804 -0.0254 -0.0005
0.11804 -0.0254 0.0005
0.119486 -0.0254 -0.0005
0.119486 -0.0254 0.0005
0.120943 -0.0254 -0.0005
0.120943 -0.0254 0.0005
0.122412 -0.0254 -0.0005
0.122412 -0.0254 0.0005
0.123892 -0.0254 -0.0005
0.123892 -0.0254 0.0005
0.125384 -0.0254 -0.0005
0.125384 -0.0254 0.0005
0.126887 -0.0254 -0.0005
0.126887 -0.0254 0.0005
0.128402 -0.0254 -0.0005
0.128402 -0.0254 0.0005
0.129928 -0.0254 -0.0005
0.129928 -0.0254 0.0005
0.131467 -0.0254 -0.0005
0.131467 -0.0254 0.0005
0.133017 -0.0254 -0.0005
0.133017 -0.0254 0.0005
0.13458 -0.0254 -0.0005
0.13458 -0.0254 0.0005
0.136155 -0.0254 -0.0005
0.136155 -0.0254 0.0005
0.137742 -0.0254 -0.0005
0.137742 -0.0254 0.0005
0.139341 -0.0254 -0.0005
0.139341 -0.0254 0.0005
0.140953 -0.0254 -0.0005
0.140953 -0.0254 0.0005
0.142577 -0.0254 -0.0005
0.142577 -0.0254 0.0005
0.144214 -0.0254 -0.0005
0.144214 -0.0254 0.0005
0.145863 -0.0254 -0.0005
0.145863 -0.0254 0.0005
0.147526 -0.0254 -0.0005
0.147526 -0.0254 0.0005
0.149201 -0.0254 -0.0005
0.149201 -0.0254 0.0005
0.15089 -0.0254 -0.0005
0.15089 -0.0254 0.0005
0.152591 -0.0254 -0.0005
0.152591 -0.0254 0.0005
0.154306 -0.0254 -0.0005
0.154306 -0.0254 0.0005
0.156034 -0.0254 -0.0005
0.156034 -0.0254 0.0005
0.157775 -0.0254 -0.0005
0.157775 -0.0254 0.0005
0.159531 -0.0254 -0.0005
0.159531 -0.0254 0.0005
0.161299 -0.0254 -0.0005
0.161299 -0.0254 0.0005
0.163082 -0.0254 -0.0005
0.163082 -0.0254 0.0005
0.164878 -0.0254 -0.0005
0.164878 -0.0254 0.0005
0.166688 -0.0254 -0.0005
0.166688 -0.0254 0.0005
0.168513 -0.0254 -0.0005
0.168513 -0.0254 0.0005
0.170351 -0.0254 -0.0005
0.170351 -0.0254 0.0005
0.172204 -0.0254 -0.0005
0.172204 -0.0254 0.0005
0.174071 -0.0254 -0.0005
0.174071 -0.0254 0.0005
0.175953 -0.0254 -0.0005
0.175953 -0.0254 0.0005
0.177849 -0.0254 -0.0005
0.177849 -0.0254 0.0005
0.17976 -0.0254 -0.0005
0.17976 -0.0254 0.0005
0.181686 -0.0254 -0.0005
0.181686 -0.0254 0.0005
0.183627 -0.0254 -0.0005
0.183627 -0.0254 0.0005
0.185583 -0.0254 -0.0005
0.185583 -0.0254 0.0005
0.187555 -0.0254 -0.0005
0.187555 -0.0254 0.0005
0.189541 -0.0254 -0.0005
0.189541 -0.0254 0.0005
0.191543 -0.0254 -0.0005
0.191543 -0.0254 0.0005
0.193561 -0.0254 -0.0005
0.193561 -0.0254 0.0005
0.195594 -0.0254 -0.0005
0.195594 -0.0254 0.0005
0.197643 -0.0254 -0.0005
0.197643 -0.0254 0.0005
0.199708 -0.0254 -0.0005
0.199708 -0.0254 0.0005
0.201789 -0.0254 -0.0005
0.201789 -0.0254 0.0005
0.203886 -0.0254 -0.0005
0.203886 -0.0254 0.0005
0.206 -0.0254 -0.0005
0.206 -0.0254 0.0005
0.208047 -0.0251856 -0.0005
0.208047 -0.0251856 0.0005
0.210173 -0.0249628 -0.0005
0.210173 -0.0249628 0.0005
0.212382 -0.0247314 -0.0005
0.212382 -0.0247314 0.0005
0.214677 -0.024491 -0.0005
0.214677 -0.024491 0.0005
0.217061 -0.0242412 -0.0005
0.217061 -0.0242412 0.0005
0.219538 -0.0239817 -0.0005
0.219538 -0.0239817 0.0005
0.222112 -0.0237121 -0.0005
0.222112 -0.0237121 0.0005
0.224785 -0.023432 -0.0005
0.224785 -0.023432 0.0005
0.227563 -0.023141 -0.0005
0.227563 -0.023141 0.0005
0.230449 -0.0228387 -0.0005
0.230449 -0.0228387 0.0005
0.233447 -0.0225246 -0.0005
0.233447 -0.0225246 0.0005
0.236562 -0.0221983 -0.0005
0.236562 -0.0221983 0.0005
0.239797 -0.0218593 -0.0005
0.239797 -0.0218593 0.0005
0.243159 -0.0215071 -0.0005
0.243159 -0.0215071 0.0005
0.246652 -0.0211412 -0.0005
0.246652 -0.0211412 0.0005
0.250281 -0.0207611 -0.0005
0.250281 -0.0207611 0.0005
0.254051 -0.0203661 -0.0005
0.254051 -0.0203661 0.0005
0.257967 -0.0199558 -0.0005
0.257967 -0.0199558 0.0005
0.262036 -0.0195295 -0.0005
0.262036 -0.0195295 0.0005
0.266264 -0.0190867 -0.0005
0.266264 -0.0190867 0.0005
0.270655 -0.0186266 -0.0005
0.270655 -0.0186266 0.0005
0.275218 -0.0181486 -0.0005
0.275218 -0.0181486 0.0005
0.279959 -0.017652 -0.0005
0.279959 -0.017652 0.0005
0.284883 -0.017136 -0.0005
0.284883 -0.017136 0.0005
0.29 -0.0166 -0.0005
0.29 -0.0166 0.0005

POLYGONS 250 1250
4 0 1 2 3
4 1 4 5 2
4 4 6 7 5
4 6 8 9 7
4 8 10 11 9
4 10 12 13 11
4 12 14 15 13
4 14 16 17 15
4 16 18 19 17
4 18 20 21 19
4 20 22 23 21
4 22 24 25 23
4 24 26 27 25
4 26 28 29 27
4 28 30 31 29
4 30 32 33 31
4 32 34 35 33
4 34 36 37 35
4 38 39 40 41
4 41 40 42 43
4 43 42 44 45
4 45 44 46 47
4 47 46 48 49
4 49 48 50 51
4 51 50 52 53
4 53 52 54 55
4 55 54 37 36
4 56 57 58 59
4 59 58 60 61
4 61 60 62 63
4 63 62 64 65
4 65 64 66 67
4 67 66 68 69
4 69 68 70 71
4 71 70 72 73
4 73 72 74 75
4 75 74 76 77
4 77 76 78 79
4 79 78 80 81
4 81 80 82 83
4 83 82 84 85
4 85 84 86 87
4 87 86 88 89
4 89 88 90 91
4 91 90 39 38
4 56 92 93 57
4 92 94 95 93
4 94 96 97 95
4 96 98 99 97
4 98 100 101 99
4 100 102 103 101
4 102 104 105 103
4 104 106 107 105
4 106 108 109 107
4 108 110 111 109
4 110 112 113 111
4 112 114 115 113
4 114 116 117 115
4 116 118 119 117
4 118 120 121 119
4 120 122 123 121
4 122 124 125 123
4 124 126 127 125
4 126 128 129 127
4 128 130 131 129
4 130 132 133 131
4 132 134 135 133
4 134 136 137 135
4 136 138 139 137
4 138 140 141 139
4 140 142 143 141
4 142 144 145 143
4 144 146 147 145
4 146 148 149 147
4 148 150 151 149
4 150 152 153 151
4 152 154 155 153
4 154 156 157 155
4 156 158 159 157
4 158 160 161 159
4 160 162 163 161
4 162 164 165 163
4 164 166 167 165
4 166 168 169 167
4 168 170 171 169
4 170 172 173 171
4 172 174 175 173
4 174 176 177 175
4 176 178 179 177
4 178 180 181 179
4 180 182 183 181
4 182 184 185 183
4 184 186 187 185
4 186 188 189 187
4 188 190 191 189
4 190 192 193 191
4 192 194 195 193
4 194 196 197 195
4 196 198 199 197
4 198 200 201 199
4 200 202 203 201
4 202 204 205 203
4 204 206 207 205
4 206 208 209 207
4 208 210 211 209
4 210 212 213 211
4 212 214 215 213
4 214 216 217 215
4 216 218 219 217
4 218 220 221 219
4 220 222 223 221
4 222 224 225 223
4 224 226 227 225
4 226 228 229 227
4 228 230 231 229
4 230 232 233 231
4 232 234 235 233
4 234 236 237 235
4 236 238 239 237
4 238 240 241 239
4 240 242 243 241
4 242 244 245 243
4 244 246 247 245
4 246 248 249 247
4 248 250 251 249
4 250 252 253 251
4 252 254 255 253
4 254 256 257 255
4 256 258 259 257
4 258 260 261 259
4 260 262 263 261
4 262 264 265 263
4 264 266 267 265
4 266 268 269 267
4 268 270 271 269
4 270 272 273 271
4 272 274 275 273
4 274 276 277 275
4 276 278 279 277
4 278 280 281 279
4 280 282 283 281
4 282 284 285 283
4 284 286 287 285
4 286 288 289 287
4 288 290 291 289
4 290 292 293 291
4 292 294 295 293
4 294 296 297 295
4 296 298 299 297
4 298 300 301 299
4 300 302 303 301
4 302 304 305 303
4 304 306 307 305
4 306 308 309 307
4 308 310 311 309
4 310 312 313 311
4 312 314 315 313
4 314 316 317 315
4 316 318 319 317
4 318 320 321 319
4 320 322 323 321
4 322 324 325 323
4 324 326 327 325
4 326 328 329 327
4 328 330 331 329
4 330 332 333 331
4 332 334 335 333
4 334 336 337 335
4 336 338 339 337
4 338 340 341 339
4 340 342 343 341
4 342 344 345 343
4 344 346 347 345
4 346 348 349 347
4 348 350 351 349
4 350 352 353 351
4 352 354 355 353
4 354 356 357 355
4 356 358 359 357
4 358 360 361 359
4 360 362 363 361
4 362 364 365 363
4 364 366 367 365
4 366 368 369 367
4 368 370 371 369
4 370 372 373 371
4 372 374 375 373
4 374 376 377 375
4 376 378 379 377
4 378 380 381 379
4 380 382 383 381
4 382 384 385 383
4 384 386 387 385
4 386 388 389 387
4 388 390 391 389
4 390 392 393 391
4 392 394 395 393
4 394 396 397 395
4 396 398 399 397
4 398 400 401 399
4 400 402 403 401
4 402 404 405 403
4 404 406 407 405
4 406 408 409 407
4 408 410 411 409
4 410 412 413 411
4 412 414 415 413
4 414 416 417 415
4 416 418 419 417
4 418 420 421 419
4 420 422 423 421
4 422 424 425 423
4 424 426 427 425
4 426 428 429 427
4 428 430 431 429
4 430 432 433 431
4 432 434 435 433
4 434 436 437 435
4 436 438 439 437
4 438 440 441 439
4 440 442 443 441
4 442 444 445 443
4 444 446 447 445
4 446 448 449 447
4 448 450 451 449
4 450 452 453 451
4 452 454 455 453
4 454 456 457 455
4 456 458 459 457
4 458 460 461 459
4 460 462 463 461
4 462 464 465 463
4 464 466 467 465
4 466 468 469 467
4 468 470 471 469
4 470 472 473 471
4 472 474 475 473
4 474 476 477 475
4 476 478 479 477
4 478 480 481 479
4 480 482 483 481
4 482 484 485 483
4 484 486 487 485
4 486 488 489 487
4 488 490 491 489
4 490 492 493 491
4 492 494 495 493
4 494 496 497 495
4 496 498 499 497
4 498 500 501 499
POINT_DATA 502
FIELD attributes 1
U 3 502 float
3.25826 0.0551087 -0.0571032
1.61992 0.0277757 -0.0281405
1.61992 0.0277757 -0.0281405
3.25826 0.0551087 -0.0571032
0.0237157 0.00068652 0
0.0237157 0.00068652 0
0.0173978 4.06117e-05 0
0.0173978 4.06117e-05 0
0.0144017 -7.90896e-05 0
0.0144017 -7.90896e-05 0
0.0129585 -5.94232e-05 0
0.0129585 -5.94232e-05 0
0.0123426 -4.96036e-05 0
0.0123426 -4.96036e-05 0
0.0121316 -4.45734e-05 0
0.0121316 -4.45734e-05 0
0.0119465 -8.17178e-06 0
0.0119465 -8.17178e-06 0
0.0116954 8.27291e-06 0
0.0116954 8.27291e-06 0
0.0115593 -1.74276e-05 0
0.0115593 -1.74276e-05 0
0.0116939 -4.05812e-05 0
0.0116939 -4.05812e-05 0
0.0119324 -4.21679e-05 0
0.0119324 -4.21679e-05 0
0.0121747 -2.9675e-05 0
0.0121747 -2.9675e-05 0
0.0122812 -6.53516e-06 0
0.0122812 -6.53516e-06 0
0.0124694 -2.40976e-05 0
0.0124694 -2.40976e-05 0
0.0127268 -2.81379e-05 0
0.0127268 -2.81379e-05 0
0.0134364 -0.000228107 0
0.0134364 -0.000228107 0
0.00626952 0.00071507 0
0.00626952 0.00071507 0
0.000861085 -0.00268405 0
0.000861085 -0.00268405 0
-0.000165198 -0.00643665 0
-0.000165198 -0.00643665 0
-0.00113047 -0.00786538 0
-0.00113047 -0.00786538 0
-0.000897985 -0.00794093 -1.23972e-21
-0.000897985 -0.00794093 -1.23972e-21
-0.000486422 -0.00785866 1.37264e-22
-0.000486422 -0.00785866 1.37264e-22
-0.000996314 -0.00681943 -1.46035e-22
-0.000996314 -0.00681943 -1.46035e-22
-0.00204294 -0.00461258 1.55856e-22
-0.00204294 -0.00461258 1.55856e-22
-0.00255887 -0.00159271 1.57629e-21
-0.00255887 -0.00159271 1.57629e-21
-0.00141477 0.000900405 0
-0.00141477 0.000900405 0
-9.63887e-05 0.000206177 0
-9.63887e-05 0.000206177 0
-0.000148483 0.000766115 0
-0.000148483 0.000766115 0
-0.000197797 0.00177058 0
-0.000197797 0.00177058 0
-0.000190836 0.00266508 0
-0.000190836 0.00266508 0
-0.000180659 0.00357068 -3.02091e-22
-0.000180659 0.00357068 -3.02091e-22
-0.000168579 0.00447985 -1.11483e-25
-0.000168579 0.00447985 -1.11483e-25
-0.000153814 0.0054197 3.01979e-22
-0.000153814 0.0054197 3.01979e-22
-0.000122688 0.00630916 6.11161e-22
-0.000122688 0.00630916 6.11161e-22
-0.000113623 0.00721848 2.75283e-25
-0.000113623 0.00721848 2.75283e-25
-3.36967e-05 0.00811815 -6.10886e-22
-3.36967e-05 0.00811815 -6.10886e-22
1.32452e-06 0.00875244 0
1.32452e-06 0.00875244 0
5.04097e-05 0.0093126 0
5.04097e-05 0.0093126 0
0.000225775 0.00966385 0
0.000225775 0.00966385 0
0.000303511 0.00946137 0
0.000303511 0.00946137 0
0.000391416 0.00875306 0
0.000391416 0.00875306 0
0.000574342 0.00747904 0
0.000574342 0.00747904 0
0.000778141 0.00536004 0
0.000778141 0.00536004 0
0.00100651 0.00205069 0
0.00100651 0.00205069 0
-0.000194621 0.000207704 0
-0.000194621 0.000207704 0
-0.000389743 0.000207935 0
-0.000389743 0.000207935 0
-0.00058498 0.000205623 0
-0.00058498 0.000205623 0
-0.00078073 0.000203086 0
-0.00078073 0.000203086 0
-0.000974984 0.000199574 0
-0.000974984 0.000199574 0
-0.00116715 0.000195124 -3.35032e-23
-0.00116715 0.000195124 -3.35032e-23
-0.00135578 0.000189632 -3.04144e-25
-0.00135578 0.000189632 -3.04144e-25
-0.00154007 0.000183075 3.33212e-23
-0.00154007 0.000183075 3.33212e-23
-0.00171881 0.000175537 3.27694e-23
-0.00171881 0.000175537 3.27694e-23
-0.00189048 0.000166981 3.28311e-23
-0.00189048 0.000166981 3.28311e-23
-0.0020534 0.000157244 0
-0.0020534 0.000157244 0
-0.00220657 0.000146268 0
-0.00220657 0.000146268 0
-0.00234865 0.00013413 -3.17604e-23
-0.00234865 0.00013413 -3.17604e-23
-0.00247785 0.000120804 -3.18231e-23
-0.00247785 0.000120804 -3.18231e-23
-0.00259234 0.000106247 0
-0.00259234 0.000106247 0
-0.00269067 9.04717e-05 3.09657e-23
-0.00269067 9.04717e-05 3.09657e-23
-0.0027714 7.36409e-05 3.10289e-23
-0.0027714 7.36409e-05 3.10289e-23
-0.00283289 5.57671e-05 0
-0.00283289 5.57671e-05 0
-0.00287402 3.70306e-05 0
-0.00287402 3.70306e-05 0
-0.0028935 1.76426e-05 -2.98357e-23
-0.0028935 1.76426e-05 -2.98357e-23
-0.00288968 -2.14224e-06 -2.98994e-23
-0.00288968 -2.14224e-06 -2.98994e-23
-0.00286155 -2.19959e-05 -2.92378e-23
-0.00286155 -2.19959e-05 -2.92378e-23
-0.00280903 -4.19284e-05 -2.93017e-23
-0.00280903 -4.19284e-05 -2.93017e-23
-0.00273211 -6.15246e-05 0
-0.00273211 -6.15246e-05 0
-0.00263101 -8.03002e-05 -2.83058e-23
-0.00263101 -8.03002e-05 -2.83058e-23
-0.00250625 -9.80354e-05 -2.83698e-23
-0.00250625 -9.80354e-05 -2.83698e-23
-0.00235872 -0.000114573 2.76693e-23
-0.00235872 -0.000114573 2.76693e-23
-0.0021899 -0.000129618 2.77331e-23
-0.0021899 -0.000129618 2.77331e-23
-0.00200126 -0.000142858 -2.70289e-23
-0.00200126 -0.000142858 -2.70289e-23
-0.00179458 -0.000154202 -2.70927e-23
-0.00179458 -0.000154202 -2.70927e-23
-0.00157189 -0.00016355 0
-0.00157189 -0.00016355 0
-0.00133526 -0.000170808 0
-0.00133526 -0.000170808 0
-0.00108686 -0.000175962 0
-0.00108686 -0.000175962 0
-0.000828961 -0.000179065 0
-0.000828961 -0.000179065 0
-0.000563822 -0.000180198 2.51598e-23
-0.000563822 -0.000180198 2.51598e-23
-0.000293622 -0.0001795 2.52231e-23
-0.000293622 -0.0001795 2.52231e-23
-2.0749e-05 -0.00017716 -4.91488e-23
-2.0749e-05 -0.00017716 -4.91488e-23
0.000252613 -0.000173209 -4.92751e-23
0.000252613 -0.000173209 -4.92751e-23
0.000524894 -0.000167776 4.80245e-23
0.000524894 -0.000167776 4.80245e-23
0.000794397 -0.000161137 4.81504e-23
0.000794397 -0.000161137 4.81504e-23
0.00105939 -0.000153475 0
0.00105939 -0.000153475 0
0.00131849 -0.00014497 -4.64316e-23
0.00131849 -0.00014497 -4.64316e-23
0.00157041 -0.000135793 -4.65571e-23
0.00157041 -0.000135793 -4.65571e-23
0.00181407 -0.000126114 -4.54304e-23
0.00181407 -0.000126114 -4.54304e-23
0.00204859 -0.000116103 -6.08808e-25
0.00204859 -0.000116103 -6.08808e-25
0.00227328 -0.00010591 4.50721e-23
0.00227328 -0.00010591 4.50721e-23
0.00248756 -9.56732e-05 4.40116e-23
0.00248756 -9.56732e-05 4.40116e-23
0.002691 -8.55134e-05 8.76955e-23
0.002691 -8.55134e-05 8.76955e-23
0.00288329 -7.5543e-05 4.36838e-23
0.00288329 -7.5543e-05 4.36838e-23
0.00306433 -6.58567e-05 0
0.00306433 -6.58567e-05 0
0.00323408 -5.65269e-05 0
0.00323408 -5.65269e-05 0
0.00339257 -4.76142e-05 0
0.00339257 -4.76142e-05 0
0.00353992 -3.91759e-05 0
0.00353992 -3.91759e-05 0
0.00367639 -3.1258e-05 -4.10153e-23
0.00367639 -3.1258e-05 -4.10153e-23
0.00380228 -2.38826e-05 -4.114e-23
0.00380228 -2.38826e-05 -4.114e-23
0.00391792 -1.70546e-05 4.02217e-23
0.00391792 -1.70546e-05 4.02217e-23
0.00402366 -1.07811e-05 4.03463e-23
0.00402366 -1.07811e-05 4.03463e-23
0.00411993 -5.07231e-06 0
0.00411993 -5.07231e-06 0
0.0042072 7.71332e-08 -3.90705e-23
0.0042072 7.71332e-08 -3.90705e-23
0.00428594 4.69324e-06 -3.91949e-23
0.00428594 4.69324e-06 -3.91949e-23
0.0043566 8.80351e-06 3.83254e-23
0.0043566 8.80351e-06 3.83254e-23
0.00441964 1.24241e-05 3.84497e-23
0.00441964 1.24241e-05 3.84497e-23
0.00447557 1.55734e-05 0
0.00447557 1.55734e-05 0
0.00452488 1.82861e-05 0
0.00452488 1.82861e-05 0
0.00456802 2.06022e-05 -3.68795e-23
0.00456802 2.06022e-05 -3.68795e-23
0.00460542 2.25528e-05 -3.70035e-23
0.00460542 2.25528e-05 -3.70035e-23
0.00463753 2.41609e-05 0
0.00463753 2.41609e-05 0
0.00466478 2.54582e-05 -3.58278e-23
0.00466478 2.54582e-05 -3.58278e-23
0.00468758 2.64854e-05 -3.59513e-23
0.00468758 2.64854e-05 -3.59513e-23
0.00470629 2.72616e-05 -3.51399e-23
0.00470629 2.72616e-05 -3.51399e-23
0.00472127 2.78058e-05 -3.52632e-23
0.00472127 2.78058e-05 -3.52632e-23
0.00473288 2.81565e-05 0
0.00473288 2.81565e-05 0
0.00474146 2.82767e-05 0
0.00474146 2.82767e-05 0
0.00474729 2.81305e-05 3.37924e-23
0.00474729 2.81305e-05 3.37924e-23
0.00475059 2.78057e-05 3.3915e-23
0.00475059 2.78057e-05 3.3915e-23
0.00475164 2.7399e-05 0
0.00475164 2.7399e-05 0
0.00475069 2.69479e-05 3.28041e-23
0.00475069 2.69479e-05 3.28041e-23
0.00474796 2.64644e-05 6.54046e-23
0.00474796 2.64644e-05 6.54046e-23
0.00474361 2.59515e-05 3.26003e-23
0.00474361 2.59515e-05 3.26003e-23
0.00473781 2.54129e-05 3.18334e-23
0.00473781 2.54129e-05 3.18334e-23
0.00473073 2.48558e-05 3.19546e-23
0.00473073 2.48558e-05 3.19546e-23
0.0047225 2.42924e-05 6.23911e-23
0.0047225 2.42924e-05 6.23911e-23
0.00471324 2.37345e-05 6.26325e-23
0.00471324 2.37345e-05 6.26325e-23
0.00470308 2.31627e-05 6.113e-23
0.00470308 2.31627e-05 6.113e-23
0.0046921 2.25981e-05 6.13702e-23
0.0046921 2.25981e-05 6.13702e-23
0.00468036 2.20801e-05 -5.9883e-23
0.00468036 2.20801e-05 -5.9883e-23
0.00466793 2.15934e-05 -6.01219e-23
0.00466793 2.15934e-05 -6.01219e-23
0.00465491 2.11181e-05 0
0.00465491 2.11181e-05 0
0.00464138 2.06423e-05 0
0.00464138 2.06423e-05 0
0.00462741 2.01653e-05 5.74308e-23
0.00462741 2.01653e-05 5.74308e-23
0.00461308 1.96955e-05 5.76668e-23
0.00461308 1.96955e-05 5.76668e-23
0.00459842 1.9239e-05 -5.62252e-23
0.00459842 1.9239e-05 -5.62252e-23
0.00458345 1.87938e-05 -5.64596e-23
0.00458345 1.87938e-05 -5.64596e-23
0.00456822 1.83549e-05 5.50331e-23
0.00456822 1.83549e-05 5.50331e-23
0.00455277 1.79206e-05 1.09708e-22
0.00455277 1.79206e-05 1.09708e-22
0.00453713 1.7493e-05 1.08528e-22
0.00453713 1.7493e-05 1.08528e-22
0.00452133 1.70759e-05 5.40853e-23
0.00452133 1.70759e-05 5.40853e-23
0.00450539 1.66706e-05 0
0.00450539 1.66706e-05 0
0.00448932 1.62756e-05 0
0.00448932 1.62756e-05 0
0.00447315 1.58895e-05 0
0.00447315 1.58895e-05 0
0.00445692 1.55148e-05 0
0.00445692 1.55148e-05 0
0.00444063 1.51546e-05 0
0.00444063 1.51546e-05 0
0.00442429 1.4808e-05 0
0.00442429 1.4808e-05 0
0.00440791 1.44703e-05 0
0.00440791 1.44703e-05 0
0.0043915 1.41384e-05 -4.87114e-23
0.0043915 1.41384e-05 -4.87114e-23
0.00437508 1.38147e-05 -9.70891e-23
0.00437508 1.38147e-05 -9.70891e-23
0.00435866 1.35034e-05 -4.83766e-23
0.00435866 1.35034e-05 -4.83766e-23
0.00434225 1.3206e-05 0
0.00434225 1.3206e-05 0
0.00432584 1.29186e-05 0
0.00432584 1.29186e-05 0
0.00430944 1.26362e-05 -4.59651e-23
0.00430944 1.26362e-05 -4.59651e-23
0.00429306 1.23574e-05 -4.61811e-23
0.00429306 1.23574e-05 -4.61811e-23
0.00427671 1.20854e-05 0
0.00427671 1.20854e-05 0
0.0042604 1.18241e-05 0
0.0042604 1.18241e-05 0
0.00424412 1.15738e-05 0
0.00424412 1.15738e-05 0
0.00422788 1.13308e-05 4.32947e-23
0.00422788 1.13308e-05 4.32947e-23
0.00421168 1.10913e-05 4.35043e-23
0.00421168 1.10913e-05 4.35043e-23
0.00419552 1.08544e-05 0
0.00419552 1.08544e-05 0
0.00417942 1.06218e-05 -4.17276e-23
0.00417942 1.06218e-05 -4.17276e-23
0.00416338 1.03962e-05 -7.22233e-25
0.00416338 1.03962e-05 -7.22233e-25
0.00414739 1.01785e-05 4.14151e-23
0.00414739 1.01785e-05 4.14151e-23
0.00413146 9.96736e-06 4.0186e-23
0.00413146 9.96736e-06 4.0186e-23
0.00411558 9.76049e-06 4.03873e-23
0.00411558 9.76049e-06 4.03873e-23
0.00409976 9.55613e-06 -3.91721e-23
0.00409976 9.55613e-06 -3.91721e-23
0.00408401 9.35366e-06 -3.93705e-23
0.00408401 9.35366e-06 -3.93705e-23
0.00406832 9.15378e-06 0
0.00406832 9.15378e-06 0
0.00405271 8.95812e-06 0
0.00405271 8.95812e-06 0
0.00403717 8.76827e-06 0
0.00403717 8.76827e-06 0
0.0040217 8.58456e-06 0
0.0040217 8.58456e-06 0
0.0040063 8.40561e-06 7.23877e-23
0.0040063 8.40561e-06 7.23877e-23
0.00399096 8.22899e-06 1.44179e-22
0.00399096 8.22899e-06 1.44179e-22
0.0039757 8.05271e-06 7.17879e-23
0.0039757 8.05271e-06 7.17879e-23
0.00396051 7.8767e-06 0
0.00396051 7.8767e-06 0
0.0039454 7.70291e-06 0
0.0039454 7.70291e-06 0
0.00393037 7.53385e-06 -6.75621e-23
0.00393037 7.53385e-06 -6.75621e-23
0.00391542 7.37051e-06 -6.79241e-23
0.00391542 7.37051e-06 -6.79241e-23
0.00390054 7.21148e-06 0
0.00390054 7.21148e-06 0
0.00388574 7.05386e-06 0
0.00388574 7.05386e-06 0
0.00387101 6.8954e-06 -6.37864e-23
0.00387101 6.8954e-06 -6.37864e-23
0.00385636 6.7363e-06 -1.28102e-24
0.00385636 6.7363e-06 -1.28102e-24
0.00384181 6.57911e-06 6.31983e-23
0.00384181 6.57911e-06 6.31983e-23
0.00382734 6.42658e-06 0
0.00382734 6.42658e-06 0
0.00381295 6.27932e-06 6.0081e-23
0.00381295 6.27932e-06 6.0081e-23
0.00379864 6.13544e-06 1.1958e-22
0.00379864 6.13544e-06 1.1958e-22
0.00378442 5.99246e-06 5.94954e-23
0.00378442 5.99246e-06 5.94954e-23
0.00377027 5.84913e-06 0
0.00377027 5.84913e-06 0
0.0037562 5.70594e-06 -5.64415e-23
0.0037562 5.70594e-06 -5.64415e-23
0.00374223 5.56469e-06 -1.21936e-24
0.00374223 5.56469e-06 -1.21936e-24
0.00372835 5.42736e-06 5.58567e-23
0.00372835 5.42736e-06 5.58567e-23
0.00371455 5.29476e-06 0
0.00371455 5.29476e-06 0
0.00370083 5.16594e-06 5.2863e-23
0.00370083 5.16594e-06 5.2863e-23
0.00368718 5.03927e-06 5.3167e-23
0.00368718 5.03927e-06 5.3167e-23
0.0036736 4.91389e-06 0
0.0036736 4.91389e-06 0
0.00366009 4.79017e-06 5.02164e-23
0.00366009 4.79017e-06 5.02164e-23
0.00364665 4.66904e-06 5.05086e-23
0.00364665 4.66904e-06 5.05086e-23
0.00363327 4.55164e-06 4.84685e-23
0.00363327 4.55164e-06 4.84685e-23
0.00361994 4.43914e-06 4.87527e-23
0.00361994 4.43914e-06 4.87527e-23
0.00360664 4.33266e-06 0
0.00360664 4.33266e-06 0
0.00359336 4.23314e-06 0
0.00359336 4.23314e-06 0
0.00358008 4.14054e-06 -4.50093e-23
0.00358008 4.14054e-06 -4.50093e-23
0.00356675 4.05718e-06 -4.52771e-23
0.00356675 4.05718e-06 -4.52771e-23
0.00355335 3.97973e-06 0
0.00355335 3.97973e-06 0
0.00353982 3.92137e-06 0
0.00353982 3.92137e-06 0
0.00352615 3.86032e-06 0
0.00352615 3.86032e-06 0
0.00351211 3.85704e-06 0
0.00351211 3.85704e-06 0
0.00349794 3.7979e-06 0
0.00349794 3.7979e-06 0
0.00348276 3.93219e-06 -3.90559e-23
0.00348276 3.93219e-06 -3.90559e-23
0.0034679 3.80938e-06 -7.7507e-23
0.0034679 3.80938e-06 -7.7507e-23
0.00345022 4.23619e-06 -3.84467e-23
0.00345022 4.23619e-06 -3.84467e-23