/*--------------------------------*- C++ -*----------------------------------*\
| =========                 |                                                 |
| \\      /  F ield         | OpenFOAM: The Open Source CFD Toolbox           |
|  \\    /   O peration     | Version:  2.1.x                                 |
|   \\  /    A nd           | Web:      www.OpenFOAM.org                      |
|    \\/     M anipulation  |                                                 |
\*---------------------------------------------------------------------------*/
FoamFile
{
    version     2.0;
    format      ascii;
    class       volScalarField;
    location    "0.1";
    object      T;
}
// * * * * * * * * * * * * * * * * * * * * * * * * * * * * * * * * * * * * * //

dimensions      [0 0 0 1 0 0 0];

internalField   nonuniform List<scalar> 
400
(
300
300
300
300
300
300
300.001
300.001
300.001
300.002
300.002
300.003
300.003
300.004
300.004
300.004
300.003
300.003
300.002
300.001
300
300
300
300.001
300.001
300.001
300.002
300.003
300.004
300.006
300.008
300.01
300.012
300.014
300.015
300.015
300.013
300.01
300.006
300.002
300
300
300.001
300.001
300.002
300.003
300.005
300.007
300.01
300.014
300.019
300.025
300.03
300.034
300.036
300.035
300.031
300.024
300.015
300.005
300
300.001
300.002
300.003
300.004
300.007
300.01
300.015
300.022
300.031
300.042
300.054
300.066
300.076
300.081
300.079
300.07
300.054
300.033
300.011
300.001
300.002
300.004
300.006
300.009
300.014
300.021
300.031
300.045
300.063
300.086
300.111
300.137
300.159
300.17
300.168
300.148
300.114
300.071
300.024
300.001
300.004
300.007
300.011
300.017
300.027
300.041
300.06
300.088
300.123
300.168
300.221
300.274
300.318
300.343
300.339
300.301
300.232
300.144
300.048
300.002
300.007
300.013
300.021
300.033
300.05
300.076
300.113
300.164
300.232
300.317
300.416
300.518
300.604
300.655
300.651
300.581
300.45
300.278
300.092
300.005
300.014
300.025
300.039
300.06
300.091
300.137
300.204
300.295
300.415
300.568
300.747
300.931
301.09
301.186
301.185
301.064
300.828
300.514
300.17
300.009
300.027
300.047
300.072
300.108
300.161
300.24
300.352
300.507
300.711
300.969
301.272
301.585
301.859
302.032
302.042
301.847
301.449
300.902
300.299
300.017
300.05
300.085
300.128
300.188
300.276
300.405
300.587
300.836
301.163
301.574
302.055
302.555
302.999
303.29
303.328
303.037
302.404
301.508
300.501
300.032
300.092
300.152
300.225
300.323
300.463
300.663
300.943
301.322
301.817
302.433
303.153
303.904
304.579
305.039
305.133
304.731
303.788
302.401
300.801
300.059
300.168
300.272
300.391
300.546
300.761
301.061
301.471
302.017
302.721
303.592
304.605
305.666
306.633
307.32
307.508
306.996
305.68
303.647
301.225
300.109
300.305
300.484
300.677
300.918
301.239
301.671
302.244
302.99
303.935
305.091
306.432
307.842
309.15
310.117
310.452
309.857
308.129
305.306
301.8
300.204
300.557
300.862
301.173
301.544
302.014
302.616
303.385
304.354
305.552
306.993
308.657
310.419
312.086
313.376
313.917
313.295
311.161
307.433
302.557
300.384
301.022
301.544
302.048
302.616
303.295
304.118
305.116
306.318
307.75
309.433
311.357
313.41
315.402
317.021
317.827
317.268
314.794
310.102
303.548
300.737
301.898
302.794
303.616
304.486
305.46
306.563
307.819
309.253
310.866
312.688
314.727
316.923
319.118
321.006
322.112
321.735
319.065
313.439
304.88
301.463
303.596
305.139
306.477
307.799
309.177
310.603
312.105
313.701
315.405
317.234
319.196
321.277
323.401
325.366
326.741
326.685
324.069
317.687
306.796
303.087
307.033
309.651
311.774
313.638
315.395
317.082
318.728
320.357
321.99
323.642
325.311
327.029
328.791
330.497
331.846
332.137
329.975
323.301
309.863
307.315
314.47
318.486
321.295
323.533
325.431
327.093
328.583
329.95
331.233
332.452
333.599
334.728
335.863
336.981
337.931
338.265
336.859
331.113
315.47
321.471
331.093
335.275
337.703
339.32
340.49
341.387
342.109
342.717
343.248
343.723
344.144
344.537
344.919
345.287
345.597
345.684
345.006
341.621
327.797
)
;

boundaryField
{
    movingWall
    {
        type            fixedValue;
        value           uniform 350;
    }
    fixedWalls
    {
        type            fixedValue;
        value           uniform 300;
    }
    frontAndBack
    {
        type            empty;
    }
}


// ************************************************************************* //
