# vtk DataFile Version 2.0
sampleSurface
ASCII
DATASET POLYDATA
POINTS 502 float
-0.0206 0 -0.0005
-0.0190172 0 -0.0005
-0.0190172 0 0.0005
-0.0206 0 0.0005
-0.0174976 0 -0.0005
-0.0174976 0 0.0005
-0.0160387 0 -0.0005
-0.0160387 0 0.0005
-0.0146381 0 -0.0005
-0.0146381 0 0.0005
-0.0132934 0 -0.0005
-0.0132934 0 0.0005
-0.0120025 0 -0.0005
-0.0120025 0 0.0005
-0.0107632 0 -0.0005
-0.0107632 0 0.0005
-0.00957337 0 -0.0005
-0.00957337 0 0.0005
-0.00843108 0 -0.0005
-0.00843108 0 0.0005
-0.00733443 0 -0.0005
-0.00733443 0 0.0005
-0.0062816 0 -0.0005
-0.0062816 0 0.0005
-0.00527083 0 -0.0005
-0.00527083 0 0.0005
-0.00430044 0 -0.0005
-0.00430044 0 0.0005
-0.00336883 0 -0.0005
-0.00336883 0 0.0005
-0.00247443 0 -0.0005
-0.00247443 0 0.0005
-0.00161577 0 -0.0005
-0.00161577 0 0.0005
-0.000791418 0 -0.0005
-0.000791418 0 0.0005
0 0 -0.0005
0 0 0.0005
0 -0.005 -0.0005
0 -0.005 0.0005
0 -0.00423364 0.0005
0 -0.00423364 -0.0005
0 -0.00353089 0.0005
0 -0.00353089 -0.0005
0 -0.00288647 0.0005
0 -0.00288647 -0.0005
0 -0.00229553 0.0005
0 -0.00229553 -0.0005
0 -0.00175363 0.0005
0 -0.00175363 -0.0005
0 -0.00125671 0.0005
0 -0.00125671 -0.0005
0 -0.000801036 0.0005
0 -0.000801036 -0.0005
0 -0.000383178 0.0005
0 -0.000383178 -0.0005
0 -0.0254 -0.0005
0 -0.0254 0.0005
0 -0.0242667 0.0005
0 -0.0242667 -0.0005
0 -0.0231333 0.0005
0 -0.0231333 -0.0005
0 -0.022 0.0005
0 -0.022 -0.0005
0 -0.0208667 0.0005
0 -0.0208667 -0.0005
0 -0.0197333 0.0005
0 -0.0197333 -0.0005
0 -0.0186 0.0005
0 -0.0186 -0.0005
0 -0.0174667 0.0005
0 -0.0174667 -0.0005
0 -0.0163333 0.0005
0 -0.0163333 -0.0005
0 -0.0152 0.0005
0 -0.0152 -0.0005
0 -0.0140667 0.0005
0 -0.0140667 -0.0005
0 -0.0129333 0.0005
0 -0.0129333 -0.0005
0 -0.0118 0.0005
0 -0.0118 -0.0005
0 -0.0106667 0.0005
0 -0.0106667 -0.0005
0 -0.00953333 0.0005
0 -0.00953333 -0.0005
0 -0.0084 0.0005
0 -0.0084 -0.0005
0 -0.00726667 0.0005
0 -0.00726667 -0.0005
0 -0.00613333 0.0005
0 -0.00613333 -0.0005
0.000528387 -0.0254 -0.0005
0.000528387 -0.0254 0.0005
0.00106088 -0.0254 -0.0005
0.00106088 -0.0254 0.0005
0.00159752 -0.0254 -0.0005
0.00159752 -0.0254 0.0005
0.00213833 -0.0254 -0.0005
0.00213833 -0.0254 0.0005
0.00268334 -0.0254 -0.0005
0.00268334 -0.0254 0.0005
0.00323259 -0.0254 -0.0005
0.00323259 -0.0254 0.0005
0.00378611 -0.0254 -0.0005
0.00378611 -0.0254 0.0005
0.00434393 -0.0254 -0.0005
0.00434393 -0.0254 0.0005
0.00490609 -0.0254 -0.0005
0.00490609 -0.0254 0.0005
0.00547262 -0.0254 -0.0005
0.00547262 -0.0254 0.0005
0.00604356 -0.0254 -0.0005
0.00604356 -0.0254 0.0005
0.00661893 -0.0254 -0.0005
0.00661893 -0.0254 0.0005
0.00719878 -0.0254 -0.0005
0.00719878 -0.0254 0.0005
0.00778313 -0.0254 -0.0005
0.00778313 -0.0254 0.0005
0.00837203 -0.0254 -0.0005
0.00837203 -0.0254 0.0005
0.00896551 -0.0254 -0.0005
0.00896551 -0.0254 0.0005
0.0095636 -0.0254 -0.0005
0.0095636 -0.0254 0.0005
0.0101663 -0.0254 -0.0005
0.0101663 -0.0254 0.0005
0.0107738 -0.0254 -0.0005
0.0107738 -0.0254 0.0005
0.0113859 -0.0254 -0.0005
0.0113859 -0.0254 0.0005
0.0120028 -0.0254 -0.0005
0.0120028 -0.0254 0.0005
0.0126245 -0.0254 -0.0005
0.0126245 -0.0254 0.0005
0.0132511 -0.0254 -0.0005
0.0132511 -0.0254 0.0005
0.0138825 -0.0254 -0.0005
0.0138825 -0.0254 0.0005
0.0145188 -0.0254 -0.0005
0.0145188 -0.0254 0.0005
0.0151601 -0.0254 -0.0005
0.0151601 -0.0254 0.0005
0.0158063 -0.0254 -0.0005
0.0158063 -0.0254 0.0005
0.0164576 -0.0254 -0.0005
0.0164576 -0.0254 0.0005
0.0171139 -0.0254 -0.0005
0.0171139 -0.0254 0.0005
0.0177754 -0.0254 -0.0005
0.0177754 -0.0254 0.0005
0.018442 -0.0254 -0.0005
0.018442 -0.0254 0.0005
0.0191137 -0.0254 -0.0005
0.0191137 -0.0254 0.0005
0.0197907 -0.0254 -0.0005
0.0197907 -0.0254 0.0005
0.020473 -0.0254 -0.0005
0.020473 -0.0254 0.0005
0.0211606 -0.0254 -0.0005
0.0211606 -0.0254 0.0005
0.0218535 -0.0254 -0.0005
0.0218535 -0.0254 0.0005
0.0225517 -0.0254 -0.0005
0.0225517 -0.0254 0.0005
0.0232555 -0.0254 -0.0005
0.0232555 -0.0254 0.0005
0.0239647 -0.0254 -0.0005
0.0239647 -0.0254 0.0005
0.0246794 -0.0254 -0.0005
0.0246794 -0.0254 0.0005
0.0253996 -0.0254 -0.0005
0.0253996 -0.0254 0.0005
0.0261255 -0.0254 -0.0005
0.0261255 -0.0254 0.0005
0.026857 -0.0254 -0.0005
0.026857 -0.0254 0.0005
0.0275942 -0.0254 -0.0005
0.0275942 -0.0254 0.0005
0.0283371 -0.0254 -0.0005
0.0283371 -0.0254 0.0005
0.0290858 -0.0254 -0.0005
0.0290858 -0.0254 0.0005
0.0298403 -0.0254 -0.0005
0.0298403 -0.0254 0.0005
0.0306007 -0.0254 -0.0005
0.0306007 -0.0254 0.0005
0.031367 -0.0254 -0.0005
0.031367 -0.0254 0.0005
0.0321393 -0.0254 -0.0005
0.0321393 -0.0254 0.0005
0.0329175 -0.0254 -0.0005
0.0329175 -0.0254 0.0005
0.0337019 -0.0254 -0.0005
0.0337019 -0.0254 0.0005
0.0344923 -0.0254 -0.0005
0.0344923 -0.0254 0.0005
0.0352888 -0.0254 -0.0005
0.0352888 -0.0254 0.0005
0.0360916 -0.0254 -0.0005
0.0360916 -0.0254 0.0005
0.0369006 -0.0254 -0.0005
0.0369006 -0.0254 0.0005
0.0377158 -0.0254 -0.0005
0.0377158 -0.0254 0.0005
0.0385375 -0.0254 -0.0005
0.0385375 -0.0254 0.0005
0.0393655 -0.0254 -0.0005
0.0393655 -0.0254 0.0005
0.0401999 -0.0254 -0.0005
0.0401999 -0.0254 0.0005
0.0410408 -0.0254 -0.0005
0.0410408 -0.0254 0.0005
0.0418883 -0.0254 -0.0005
0.0418883 -0.0254 0.0005
0.0427424 -0.0254 -0.0005
0.0427424 -0.0254 0.0005
0.0436031 -0.0254 -0.0005
0.0436031 -0.0254 0.0005
0.0444704 -0.0254 -0.0005
0.0444704 -0.0254 0.0005
0.0453446 -0.0254 -0.0005
0.0453446 -0.0254 0.0005
0.0462255 -0.0254 -0.0005
0.0462255 -0.0254 0.0005
0.0471133 -0.0254 -0.0005
0.0471133 -0.0254 0.0005
0.048008 -0.0254 -0.0005
0.048008 -0.0254 0.0005
0.0489096 -0.0254 -0.0005
0.0489096 -0.0254 0.0005
0.0498183 -0.0254 -0.0005
0.0498183 -0.0254 0.0005
0.050734 -0.0254 -0.0005
0.050734 -0.0254 0.0005
0.0516568 -0.0254 -0.0005
0.0516568 -0.0254 0.0005
0.0525868 -0.0254 -0.0005
0.0525868 -0.0254 0.0005
0.053524 -0.0254 -0.0005
0.053524 -0.0254 0.0005
0.0544686 -0.0254 -0.0005
0.0544686 -0.0254 0.0005
0.0554204 -0.0254 -0.0005
0.0554204 -0.0254 0.0005
0.0563797 -0.0254 -0.0005
0.0563797 -0.0254 0.0005
0.0573464 -0.0254 -0.0005
0.0573464 -0.0254 0.0005
0.0583206 -0.0254 -0.0005
0.0583206 -0.0254 0.0005
0.0593025 -0.0254 -0.0005
0.0593025 -0.0254 0.0005
0.0602919 -0.0254 -0.0005
0.0602919 -0.0254 0.0005
0.0612891 -0.0254 -0.0005
0.0612891 -0.0254 0.0005
0.0622939 -0.0254 -0.0005
0.0622939 -0.0254 0.0005
0.0633067 -0.0254 -0.0005
0.0633067 -0.0254 0.0005
0.0643272 -0.0254 -0.0005
0.0643272 -0.0254 0.0005
0.0653557 -0.0254 -0.0005
0.0653557 -0.0254 0.0005
0.0663923 -0.0254 -0.0005
0.0663923 -0.0254 0.0005
0.0674368 -0.0254 -0.0005
0.0674368 -0.0254 0.0005
0.0684895 -0.0254 -0.0005
0.0684895 -0.0254 0.0005
0.0695504 -0.0254 -0.0005
0.0695504 -0.0254 0.0005
0.0706195 -0.0254 -0.0005
0.0706195 -0.0254 0.0005
0.0716969 -0.0254 -0.0005
0.0716969 -0.0254 0.0005
0.0727828 -0.0254 -0.0005
0.0727828 -0.0254 0.0005
0.073877 -0.0254 -0.0005
0.073877 -0.0254 0.0005
0.0749798 -0.0254 -0.0005
0.0749798 -0.0254 0.0005
0.0760911 -0.0254 -0.0005
0.0760911 -0.0254 0.0005
0.0772111 -0.0254 -0.0005
0.0772111 -0.0254 0.0005
0.0783398 -0.0254 -0.0005
0.0783398 -0.0254 0.0005
0.0794772 -0.0254 -0.0005
0.0794772 -0.0254 0.0005
0.0806235 -0.0254 -0.0005
0.0806235 -0.0254 0.0005
0.0817787 -0.0254 -0.0005
0.0817787 -0.0254 0.0005
0.0829429 -0.0254 -0.0005
0.0829429 -0.0254 0.0005
0.0841162 -0.0254 -0.0005
0.0841162 -0.0254 0.0005
0.0852985 -0.0254 -0.0005
0.0852985 -0.0254 0.0005
0.0864901 -0.0254 -0.0005
0.0864901 -0.0254 0.0005
0.0876909 -0.0254 -0.0005
0.0876909 -0.0254 0.0005
0.0889011 -0.0254 -0.0005
0.0889011 -0.0254 0.0005
0.0901207 -0.0254 -0.0005
0.0901207 -0.0254 0.0005
0.0913497 -0.0254 -0.0005
0.0913497 -0.0254 0.0005
0.0925883 -0.0254 -0.0005
0.0925883 -0.0254 0.0005
0.0938366 -0.0254 -0.0005
0.0938366 -0.0254 0.0005
0.0950945 -0.0254 -0.0005
0.0950945 -0.0254 0.0005
0.0963622 -0.0254 -0.0005
0.0963622 -0.0254 0.0005
0.0976398 -0.0254 -0.0005
0.0976398 -0.0254 0.0005
0.0989273 -0.0254 -0.0005
0.0989273 -0.0254 0.0005
0.100225 -0.0254 -0.0005
0.100225 -0.0254 0.0005
0.101532 -0.0254 -0.0005
0.101532 -0.0254 0.0005
0.10285 -0.0254 -0.0005
0.10285 -0.0254 0.0005
0.104178 -0.0254 -0.0005
0.104178 -0.0254 0.0005
0.105517 -0.0254 -0.0005
0.105517 -0.0254 0.0005
0.106865 -0.0254 -0.0005
0.106865 -0.0254 0.0005
0.108225 -0.0254 -0.0005
0.108225 -0.0254 0.0005
0.109594 -0.0254 -0.0005
0.109594 -0.0254 0.0005
0.110975 -0.0254 -0.0005
0.110975 -0.0254 0.0005
0.112366 -0.0254 -0.0005
0.112366 -0.0254 0.0005
0.113768 -0.0254 -0.0005
0.113768 -0.0254 0.0005
0.115181 -0.0254 -0.0005
0.115181 -0.0254 0.0005
0.116605 -0.0254 -0.0005
0.116605 -0.0254 0.0005
0.11804 -0.0254 -0.0005
0.11804 -0.0254 0.0005
0.119486 -0.0254 -0.0005
0.119486 -0.0254 0.0005
0.120943 -0.0254 -0.0005
0.120943 -0.0254 0.0005
0.122412 -0.0254 -0.0005
0.122412 -0.0254 0.0005
0.123892 -0.0254 -0.0005
0.123892 -0.0254 0.0005
0.125384 -0.0254 -0.0005
0.125384 -0.0254 0.0005
0.126887 -0.0254 -0.0005
0.126887 -0.0254 0.0005
0.128402 -0.0254 -0.0005
0.128402 -0.0254 0.0005
0.129928 -0.0254 -0.0005
0.129928 -0.0254 0.0005
0.131467 -0.0254 -0.0005
0.131467 -0.0254 0.0005
0.133017 -0.0254 -0.0005
0.133017 -0.0254 0.0005
0.13458 -0.0254 -0.0005
0.13458 -0.0254 0.0005
0.136155 -0.0254 -0.0005
0.136155 -0.0254 0.0005
0.137742 -0.0254 -0.0005
0.137742 -0.0254 0.0005
0.139341 -0.0254 -0.0005
0.139341 -0.0254 0.0005
0.140953 -0.0254 -0.0005
0.140953 -0.0254 0.0005
0.142577 -0.0254 -0.0005
0.142577 -0.0254 0.0005
0.144214 -0.0254 -0.0005
0.144214 -0.0254 0.0005
0.145863 -0.0254 -0.0005
0.145863 -0.0254 0.0005
0.147526 -0.0254 -0.0005
0.147526 -0.0254 0.0005
0.149201 -0.0254 -0.0005
0.149201 -0.0254 0.0005
0.15089 -0.0254 -0.0005
0.15089 -0.0254 0.0005
0.152591 -0.0254 -0.0005
0.152591 -0.0254 0.0005
0.154306 -0.0254 -0.0005
0.154306 -0.0254 0.0005
0.156034 -0.0254 -0.0005
0.156034 -0.0254 0.0005
0.157775 -0.0254 -0.0005
0.157775 -0.0254 0.0005
0.159531 -0.0254 -0.0005
0.159531 -0.0254 0.0005
0.161299 -0.0254 -0.0005
0.161299 -0.0254 0.0005
0.163082 -0.0254 -0.0005
0.163082 -0.0254 0.0005
0.164878 -0.0254 -0.0005
0.164878 -0.0254 0.0005
0.166688 -0.0254 -0.0005
0.166688 -0.0254 0.0005
0.168513 -0.0254 -0.0005
0.168513 -0.0254 0.0005
0.170351 -0.0254 -0.0005
0.170351 -0.0254 0.0005
0.172204 -0.0254 -0.0005
0.172204 -0.0254 0.0005
0.174071 -0.0254 -0.0005
0.174071 -0.0254 0.0005
0.175953 -0.0254 -0.0005
0.175953 -0.0254 0.0005
0.177849 -0.0254 -0.0005
0.177849 -0.0254 0.0005
0.17976 -0.0254 -0.0005
0.17976 -0.0254 0.0005
0.181686 -0.0254 -0.0005
0.181686 -0.0254 0.0005
0.183627 -0.0254 -0.0005
0.183627 -0.0254 0.0005
0.185583 -0.0254 -0.0005
0.185583 -0.0254 0.0005
0.187555 -0.0254 -0.0005
0.187555 -0.0254 0.0005
0.189541 -0.0254 -0.0005
0.189541 -0.0254 0.0005
0.191543 -0.0254 -0.0005
0.191543 -0.0254 0.0005
0.193561 -0.0254 -0.0005
0.193561 -0.0254 0.0005
0.195594 -0.0254 -0.0005
0.195594 -0.0254 0.0005
0.197643 -0.0254 -0.0005
0.197643 -0.0254 0.0005
0.199708 -0.0254 -0.0005
0.199708 -0.0254 0.0005
0.201789 -0.0254 -0.0005
0.201789 -0.0254 0.0005
0.203886 -0.0254 -0.0005
0.203886 -0.0254 0.0005
0.206 -0.0254 -0.0005
0.206 -0.0254 0.0005
0.208047 -0.0251856 -0.0005
0.208047 -0.0251856 0.0005
0.210173 -0.0249628 -0.0005
0.210173 -0.0249628 0.0005
0.212382 -0.0247314 -0.0005
0.212382 -0.0247314 0.0005
0.214677 -0.024491 -0.0005
0.214677 -0.024491 0.0005
0.217061 -0.0242412 -0.0005
0.217061 -0.0242412 0.0005
0.219538 -0.0239817 -0.0005
0.219538 -0.0239817 0.0005
0.222112 -0.0237121 -0.0005
0.222112 -0.0237121 0.0005
0.224785 -0.023432 -0.0005
0.224785 -0.023432 0.0005
0.227563 -0.023141 -0.0005
0.227563 -0.023141 0.0005
0.230449 -0.0228387 -0.0005
0.230449 -0.0228387 0.0005
0.233447 -0.0225246 -0.0005
0.233447 -0.0225246 0.0005
0.236562 -0.0221983 -0.0005
0.236562 -0.0221983 0.0005
0.239797 -0.0218593 -0.0005
0.239797 -0.0218593 0.0005
0.243159 -0.0215071 -0.0005
0.243159 -0.0215071 0.0005
0.246652 -0.0211412 -0.0005
0.246652 -0.0211412 0.0005
0.250281 -0.0207611 -0.0005
0.250281 -0.0207611 0.0005
0.254051 -0.0203661 -0.0005
0.254051 -0.0203661 0.0005
0.257967 -0.0199558 -0.0005
0.257967 -0.0199558 0.0005
0.262036 -0.0195295 -0.0005
0.262036 -0.0195295 0.0005
0.266264 -0.0190867 -0.0005
0.266264 -0.0190867 0.0005
0.270655 -0.0186266 -0.0005
0.270655 -0.0186266 0.0005
0.275218 -0.0181486 -0.0005
0.275218 -0.0181486 0.0005
0.279959 -0.017652 -0.0005
0.279959 -0.017652 0.0005
0.284883 -0.017136 -0.0005
0.284883 -0.017136 0.0005
0.29 -0.0166 -0.0005
0.29 -0.0166 0.0005

POLYGONS 250 1250
4 0 1 2 3
4 1 4 5 2
4 4 6 7 5
4 6 8 9 7
4 8 10 11 9
4 10 12 13 11
4 12 14 15 13
4 14 16 17 15
4 16 18 19 17
4 18 20 21 19
4 20 22 23 21
4 22 24 25 23
4 24 26 27 25
4 26 28 29 27
4 28 30 31 29
4 30 32 33 31
4 32 34 35 33
4 34 36 37 35
4 38 39 40 41
4 41 40 42 43
4 43 42 44 45
4 45 44 46 47
4 47 46 48 49
4 49 48 50 51
4 51 50 52 53
4 53 52 54 55
4 55 54 37 36
4 56 57 58 59
4 59 58 60 61
4 61 60 62 63
4 63 62 64 65
4 65 64 66 67
4 67 66 68 69
4 69 68 70 71
4 71 70 72 73
4 73 72 74 75
4 75 74 76 77
4 77 76 78 79
4 79 78 80 81
4 81 80 82 83
4 83 82 84 85
4 85 84 86 87
4 87 86 88 89
4 89 88 90 91
4 91 90 39 38
4 56 92 93 57
4 92 94 95 93
4 94 96 97 95
4 96 98 99 97
4 98 100 101 99
4 100 102 103 101
4 102 104 105 103
4 104 106 107 105
4 106 108 109 107
4 108 110 111 109
4 110 112 113 111
4 112 114 115 113
4 114 116 117 115
4 116 118 119 117
4 118 120 121 119
4 120 122 123 121
4 122 124 125 123
4 124 126 127 125
4 126 128 129 127
4 128 130 131 129
4 130 132 133 131
4 132 134 135 133
4 134 136 137 135
4 136 138 139 137
4 138 140 141 139
4 140 142 143 141
4 142 144 145 143
4 144 146 147 145
4 146 148 149 147
4 148 150 151 149
4 150 152 153 151
4 152 154 155 153
4 154 156 157 155
4 156 158 159 157
4 158 160 161 159
4 160 162 163 161
4 162 164 165 163
4 164 166 167 165
4 166 168 169 167
4 168 170 171 169
4 170 172 173 171
4 172 174 175 173
4 174 176 177 175
4 176 178 179 177
4 178 180 181 179
4 180 182 183 181
4 182 184 185 183
4 184 186 187 185
4 186 188 189 187
4 188 190 191 189
4 190 192 193 191
4 192 194 195 193
4 194 196 197 195
4 196 198 199 197
4 198 200 201 199
4 200 202 203 201
4 202 204 205 203
4 204 206 207 205
4 206 208 209 207
4 208 210 211 209
4 210 212 213 211
4 212 214 215 213
4 214 216 217 215
4 216 218 219 217
4 218 220 221 219
4 220 222 223 221
4 222 224 225 223
4 224 226 227 225
4 226 228 229 227
4 228 230 231 229
4 230 232 233 231
4 232 234 235 233
4 234 236 237 235
4 236 238 239 237
4 238 240 241 239
4 240 242 243 241
4 242 244 245 243
4 244 246 247 245
4 246 248 249 247
4 248 250 251 249
4 250 252 253 251
4 252 254 255 253
4 254 256 257 255
4 256 258 259 257
4 258 260 261 259
4 260 262 263 261
4 262 264 265 263
4 264 266 267 265
4 266 268 269 267
4 268 270 271 269
4 270 272 273 271
4 272 274 275 273
4 274 276 277 275
4 276 278 279 277
4 278 280 281 279
4 280 282 283 281
4 282 284 285 283
4 284 286 287 285
4 286 288 289 287
4 288 290 291 289
4 290 292 293 291
4 292 294 295 293
4 294 296 297 295
4 296 298 299 297
4 298 300 301 299
4 300 302 303 301
4 302 304 305 303
4 304 306 307 305
4 306 308 309 307
4 308 310 311 309
4 310 312 313 311
4 312 314 315 313
4 314 316 317 315
4 316 318 319 317
4 318 320 321 319
4 320 322 323 321
4 322 324 325 323
4 324 326 327 325
4 326 328 329 327
4 328 330 331 329
4 330 332 333 331
4 332 334 335 333
4 334 336 337 335
4 336 338 339 337
4 338 340 341 339
4 340 342 343 341
4 342 344 345 343
4 344 346 347 345
4 346 348 349 347
4 348 350 351 349
4 350 352 353 351
4 352 354 355 353
4 354 356 357 355
4 356 358 359 357
4 358 360 361 359
4 360 362 363 361
4 362 364 365 363
4 364 366 367 365
4 366 368 369 367
4 368 370 371 369
4 370 372 373 371
4 372 374 375 373
4 374 376 377 375
4 376 378 379 377
4 378 380 381 379
4 380 382 383 381
4 382 384 385 383
4 384 386 387 385
4 386 388 389 387
4 388 390 391 389
4 390 392 393 391
4 392 394 395 393
4 394 396 397 395
4 396 398 399 397
4 398 400 401 399
4 400 402 403 401
4 402 404 405 403
4 404 406 407 405
4 406 408 409 407
4 408 410 411 409
4 410 412 413 411
4 412 414 415 413
4 414 416 417 415
4 416 418 419 417
4 418 420 421 419
4 420 422 423 421
4 422 424 425 423
4 424 426 427 425
4 426 428 429 427
4 428 430 431 429
4 430 432 433 431
4 432 434 435 433
4 434 436 437 435
4 436 438 439 437
4 438 440 441 439
4 440 442 443 441
4 442 444 445 443
4 444 446 447 445
4 446 448 449 447
4 448 450 451 449
4 450 452 453 451
4 452 454 455 453
4 454 456 457 455
4 456 458 459 457
4 458 460 461 459
4 460 462 463 461
4 462 464 465 463
4 464 466 467 465
4 466 468 469 467
4 468 470 471 469
4 470 472 473 471
4 472 474 475 473
4 474 476 477 475
4 476 478 479 477
4 478 480 481 479
4 480 482 483 481
4 482 484 485 483
4 484 486 487 485
4 486 488 489 487
4 488 490 491 489
4 490 492 493 491
4 492 494 495 493
4 494 496 497 495
4 496 498 499 497
4 498 500 501 499
POINT_DATA 502
FIELD attributes 1
U 3 502 float
3.36045 0.00722173 0.00863386
1.67042 0.00420361 0.00425477
1.67042 0.00420361 0.00425477
3.36045 0.00722173 0.00863386
0.0239206 0.00071712 0
0.0239206 0.00071712 0
0.0176367 4.76796e-05 0
0.0176367 4.76796e-05 0
0.0147486 -7.05194e-05 0
0.0147486 -7.05194e-05 0
0.0134343 -4.76631e-05 0
0.0134343 -4.76631e-05 0
0.0130565 -6.28088e-05 0
0.0130565 -6.28088e-05 0
0.0130466 -6.85806e-05 0
0.0130466 -6.85806e-05 0
0.0128798 6.90507e-06 0
0.0128798 6.90507e-06 0
0.0124779 4.54816e-05 0
0.0124779 4.54816e-05 0
0.0125023 -3.38661e-05 0
0.0125023 -3.38661e-05 0
0.0130688 -0.000107163 0
0.0130688 -0.000107163 0
0.0136575 -7.06202e-05 0
0.0136575 -7.06202e-05 0
0.0138254 6.64942e-06 0
0.0138254 6.64942e-06 0
0.0138664 1.82874e-05 0
0.0138664 1.82874e-05 0
0.0142797 -0.00011067 0
0.0142797 -0.00011067 0
0.01542 -0.000184418 0
0.01542 -0.000184418 0
0.0166064 -0.000242226 0
0.0166064 -0.000242226 0
0.00775459 0.000911952 0
0.00775459 0.000911952 0
0.00122981 0.00444683 0
0.00122981 0.00444683 0
0.00128838 0.000466055 0
0.00128838 0.000466055 0
0.000555671 -0.00374139 0
0.000555671 -0.00374139 0
-0.00102359 -0.00641649 1.25832e-21
-0.00102359 -0.00641649 1.25832e-21
-0.00209967 -0.00666188 -1.38979e-22
-0.00209967 -0.00666188 -1.38979e-22
-0.00224307 -0.00577013 1.69531e-22
-0.00224307 -0.00577013 1.69531e-22
-0.00263013 -0.00407756 -1.60188e-22
-0.00263013 -0.00407756 -1.60188e-22
-0.0031218 -0.00109652 -1.62221e-21
-0.0031218 -0.00109652 -1.62221e-21
-0.00156696 0.00132564 0
-0.00156696 0.00132564 0
-7.29469e-05 0.000146488 0
-7.29469e-05 0.000146488 0
-0.000115834 0.000543483 0
-0.000115834 0.000543483 0
-0.000160872 0.0012661 0
-0.000160872 0.0012661 0
-0.000165727 0.00193712 0
-0.000165727 0.00193712 0
-0.000171223 0.00265451 3.19855e-22
-0.000171223 0.00265451 3.19855e-22
-0.000176955 0.00343231 7.68102e-26
-0.000176955 0.00343231 7.68102e-26
-0.000181772 0.00427681 -3.19778e-22
-0.000181772 0.00427681 -3.19778e-22
-0.000185458 0.00520456 -6.34416e-22
-0.000185458 0.00520456 -6.34416e-22
-0.000185222 0.00620261 -2.12965e-25
-0.000185222 0.00620261 -2.12965e-25
-0.00016538 0.00728949 6.34203e-22
-0.00016538 0.00728949 6.34203e-22
-0.000166628 0.00834636 0
-0.000166628 0.00834636 0
-8.89354e-05 0.00959411 0
-8.89354e-05 0.00959411 0
-2.87667e-05 0.0105718 0
-2.87667e-05 0.0105718 0
4.53791e-05 0.0112027 0
4.53791e-05 0.0112027 0
0.000285574 0.01186 0
0.000285574 0.01186 0
0.000484231 0.0117099 0
0.000484231 0.0117099 0
0.000690661 0.0105002 0
0.000690661 0.0105002 0
0.000961904 0.00813462 0
0.000961904 0.00813462 0
-0.000138037 0.00014148 0
-0.000138037 0.00014148 0
-0.000263667 0.000134199 0
-0.000263667 0.000134199 0
-0.000385656 0.000130331 0
-0.000385656 0.000130331 0
-0.000506703 0.000126644 0
-0.000506703 0.000126644 0
-0.000624397 0.000121944 0
-0.000624397 0.000121944 0
-0.000738056 0.000116201 3.59553e-23
-0.000738056 0.000116201 3.59553e-23
-0.000846075 0.000109329 2.9964e-25
-0.000846075 0.000109329 2.9964e-25
-0.000947454 0.000101276 -3.57868e-23
-0.000947454 0.000101276 -3.57868e-23
-0.001041 9.21656e-05 -3.52647e-23
-0.001041 9.21656e-05 -3.52647e-23
-0.00112543 8.21059e-05 -3.53311e-23
-0.00112543 8.21059e-05 -3.53311e-23
-0.00119895 7.10537e-05 0
-0.00119895 7.10537e-05 0
-0.00126052 5.89455e-05 0
-0.00126052 5.89455e-05 0
-0.00130941 4.59506e-05 3.44046e-23
-0.00130941 4.59506e-05 3.44046e-23
-0.00134441 3.2212e-05 3.44725e-23
-0.00134441 3.2212e-05 3.44725e-23
-0.00136416 1.78465e-05 0
-0.00136416 1.78465e-05 0
-0.00136744 2.88639e-06 -3.38082e-23
-0.00136744 2.88639e-06 -3.38082e-23
-0.00135366 -1.23782e-05 -3.38772e-23
-0.00135366 -1.23782e-05 -3.38772e-23
-0.00132211 -2.77771e-05 0
-0.00132211 -2.77771e-05 0
-0.00127254 -4.31482e-05 0
-0.00127254 -4.31482e-05 0
-0.00120509 -5.81863e-05 3.30724e-23
-0.00120509 -5.81863e-05 3.30724e-23
-0.00111965 -7.27392e-05 3.31431e-23
-0.00111965 -7.27392e-05 3.31431e-23
-0.00101605 -8.63972e-05 3.27228e-23
-0.00101605 -8.63972e-05 3.27228e-23
-0.000895208 -9.92087e-05 3.27943e-23
-0.000895208 -9.92087e-05 3.27943e-23
-0.000758314 -0.000111125 0
-0.000758314 -0.000111125 0
-0.00060619 -0.000121663 3.22089e-23
-0.00060619 -0.000121663 3.22089e-23
-0.000439852 -0.000130648 3.22816e-23
-0.000439852 -0.000130648 3.22816e-23
-0.000260411 -0.000138251 -3.18662e-23
-0.000260411 -0.000138251 -3.18662e-23
-6.96691e-05 -0.000144348 -3.19398e-23
-6.96691e-05 -0.000144348 -3.19398e-23
0.00013054 -0.000148825 3.15182e-23
0.00013054 -0.000148825 3.15182e-23
0.000338603 -0.000151815 3.15926e-23
0.000338603 -0.000151815 3.15926e-23
0.000552923 -0.000153318 0
0.000552923 -0.000153318 0
0.000772019 -0.000153398 0
0.000772019 -0.000153398 0
0.00099432 -0.000152126 0
0.00099432 -0.000152126 0
0.00121825 -0.000149603 0
0.00121825 -0.000149603 0
0.00144232 -0.000145964 -3.04119e-23
0.00144232 -0.000145964 -3.04119e-23
0.0016652 -0.000141346 -3.04884e-23
0.0016652 -0.000141346 -3.04884e-23
0.0018857 -0.000135868 6.00354e-23
0.0018857 -0.000135868 6.00354e-23
0.00210267 -0.000129647 6.01896e-23
0.00210267 -0.000129647 6.01896e-23
0.00231504 -0.000122816 -5.92218e-23
0.00231504 -0.000122816 -5.92218e-23
0.00252194 -0.000115518 -5.93771e-23
0.00252194 -0.000115518 -5.93771e-23
0.00272268 -0.000107879 0
0.00272268 -0.000107879 0
0.00291662 -0.000100001 5.79593e-23
0.00291662 -0.000100001 5.79593e-23
0.00310316 -9.19793e-05 5.8116e-23
0.00310316 -9.19793e-05 5.8116e-23
0.00328187 -8.39159e-05 5.70942e-23
0.00328187 -8.39159e-05 5.70942e-23
0.0034525 -7.5905e-05 5.95734e-25
0.0034525 -7.5905e-05 5.95734e-25
0.00361483 -6.80207e-05 -5.68138e-23
0.00361483 -6.80207e-05 -5.68138e-23
0.00376869 -6.03226e-05 -5.57703e-23
0.00376869 -6.03226e-05 -5.57703e-23
0.00391398 -5.28656e-05 -1.11253e-22
0.00391398 -5.28656e-05 -1.11253e-22
0.00405075 -4.56985e-05 -5.54825e-23
0.00405075 -4.56985e-05 -5.54825e-23
0.00417911 -3.88585e-05 0
0.00417911 -3.88585e-05 0
0.00429914 -3.23735e-05 0
0.00429914 -3.23735e-05 0
0.00441099 -2.62668e-05 0
0.00441099 -2.62668e-05 0
0.00451489 -2.05535e-05 0
0.00451489 -2.05535e-05 0
0.00461111 -1.52372e-05 5.26182e-23
0.00461111 -1.52372e-05 5.26182e-23
0.00469993 -1.03162e-05 5.27781e-23
0.00469993 -1.03162e-05 5.27781e-23
0.00478158 -5.79226e-06 -5.17144e-23
0.00478158 -5.79226e-06 -5.17144e-23
0.00485638 -1.66341e-06 -5.18746e-23
0.00485638 -1.66341e-06 -5.18746e-23
0.00492469 2.08486e-06 0
0.00492469 2.08486e-06 0
0.00498684 5.47378e-06 5.03647e-23
0.00498684 5.47378e-06 5.03647e-23
0.00504312 8.51799e-06 5.05251e-23
0.00504312 8.51799e-06 5.05251e-23
0.00509384 1.12274e-05 -4.94712e-23
0.00509384 1.12274e-05 -4.94712e-23
0.00513936 1.36205e-05 -4.96316e-23
0.00513936 1.36205e-05 -4.96316e-23
0.00518002 1.57249e-05 0
0.00518002 1.57249e-05 0
0.0052161 1.7564e-05 0
0.0052161 1.7564e-05 0
0.0052479 1.91526e-05 4.7705e-23
0.0052479 1.91526e-05 4.7705e-23
0.0052757 2.05079e-05 4.78653e-23
0.0052757 2.05079e-05 4.78653e-23
0.00529981 2.1656e-05 0
0.00529981 2.1656e-05 0
0.0053205 2.26206e-05 4.64022e-23
0.0053205 2.26206e-05 4.64022e-23
0.005338 2.34138e-05 4.65622e-23
0.005338 2.34138e-05 4.65622e-23
0.00535254 2.4041e-05 4.55453e-23
0.00535254 2.4041e-05 4.55453e-23
0.00536441 2.45121e-05 4.57051e-23
0.00536441 2.45121e-05 4.57051e-23
0.00537382 2.48111e-05 0
0.00537382 2.48111e-05 0
0.00538093 2.49203e-05 0
0.00538093 2.49203e-05 0
0.00538589 2.4876e-05 -4.38611e-23
0.00538589 2.4876e-05 -4.38611e-23
0.0053889 2.4734e-05 -4.40203e-23
0.0053889 2.4734e-05 -4.40203e-23
0.00539016 2.45356e-05 0
0.00539016 2.45356e-05 0
0.00538982 2.42998e-05 -4.2625e-23
0.00538982 2.42998e-05 -4.2625e-23
0.005388 2.40315e-05 -8.50017e-23
0.005388 2.40315e-05 -8.50017e-23
0.00538484 2.37327e-05 -4.23764e-23
0.00538484 2.37327e-05 -4.23764e-23
0.00538046 2.34091e-05 -4.14124e-23
0.00538046 2.34091e-05 -4.14124e-23
0.00537496 2.30671e-05 -4.15701e-23
0.00537496 2.30671e-05 -4.15701e-23
0.00536844 2.27128e-05 -8.12341e-23
0.00536844 2.27128e-05 -8.12341e-23
0.00536098 2.23445e-05 -8.15484e-23
0.00536098 2.23445e-05 -8.15484e-23
0.00535265 2.19779e-05 -7.96643e-23
0.00535265 2.19779e-05 -7.96643e-23
0.00534353 2.16429e-05 -7.99773e-23
0.00534353 2.16429e-05 -7.99773e-23
0.00533367 2.13311e-05 7.81152e-23
0.00533367 2.13311e-05 7.81152e-23
0.00532313 2.10178e-05 7.84268e-23
0.00532313 2.10178e-05 7.84268e-23
0.00531198 2.06923e-05 0
0.00531198 2.06923e-05 0
0.00530029 2.03582e-05 0
0.00530029 2.03582e-05 0
0.00528812 2.00257e-05 -7.50783e-23
0.00528812 2.00257e-05 -7.50783e-23
0.0052755 1.97012e-05 -7.53868e-23
0.0052755 1.97012e-05 -7.53868e-23
0.00526247 1.9383e-05 7.35899e-23
0.00526247 1.9383e-05 7.35899e-23
0.00524904 1.90652e-05 7.38967e-23
0.00524904 1.90652e-05 7.38967e-23
0.00523527 1.87466e-05 -7.21212e-23
0.00523527 1.87466e-05 -7.21212e-23
0.00522119 1.84325e-05 -1.4382e-22
0.00522119 1.84325e-05 -1.4382e-22
0.00520683 1.81272e-05 -1.4237e-22
0.00520683 1.81272e-05 -1.4237e-22
0.00519221 1.78299e-05 -7.0975e-23
0.00519221 1.78299e-05 -7.0975e-23
0.00517734 1.75371e-05 0
0.00517734 1.75371e-05 0
0.00516225 1.72481e-05 0
0.00516225 1.72481e-05 0
0.00514698 1.69665e-05 0
0.00514698 1.69665e-05 0
0.00513154 1.66956e-05 0
0.00513154 1.66956e-05 0
0.00511593 1.64346e-05 0
0.00511593 1.64346e-05 0
0.00510017 1.6179e-05 0
0.00510017 1.6179e-05 0
0.00508427 1.59256e-05 0
0.00508427 1.59256e-05 0
0.00506825 1.56753e-05 6.43804e-23
0.00506825 1.56753e-05 6.43804e-23
0.00505214 1.54327e-05 1.28377e-22
0.00505214 1.54327e-05 1.28377e-22
0.00503593 1.52e-05 6.39958e-23
0.00503593 1.52e-05 6.39958e-23
0.00501962 1.49745e-05 0
0.00501962 1.49745e-05 0
0.00500322 1.47514e-05 0
0.00500322 1.47514e-05 0
0.00498674 1.45282e-05 6.10398e-23
0.00498674 1.45282e-05 6.10398e-23
0.00497021 1.43072e-05 6.13267e-23
0.00497021 1.43072e-05 6.13267e-23
0.00495362 1.40926e-05 0
0.00495362 1.40926e-05 0
0.004937 1.38859e-05 0
0.004937 1.38859e-05 0
0.00492032 1.36843e-05 0
0.00492032 1.36843e-05 0
0.00490359 1.34842e-05 -5.78027e-23
0.00490359 1.34842e-05 -5.78027e-23
0.00488683 1.32842e-05 -5.80826e-23
0.00488683 1.32842e-05 -5.80826e-23
0.00487004 1.30857e-05 0
0.00487004 1.30857e-05 0
0.00485324 1.28914e-05 5.59078e-23
0.00485324 1.28914e-05 5.59078e-23
0.00483642 1.27025e-05 8.99452e-25
0.00483642 1.27025e-05 8.99452e-25
0.00481959 1.25182e-05 -5.55577e-23
0.00481959 1.25182e-05 -5.55577e-23
0.00480274 1.23365e-05 -5.40469e-23
0.00480274 1.23365e-05 -5.40469e-23
0.00478588 1.21558e-05 -5.43177e-23
0.00478588 1.21558e-05 -5.43177e-23
0.00476901 1.19756e-05 5.28247e-23
0.00476901 1.19756e-05 5.28247e-23
0.00475215 1.17963e-05 5.30923e-23
0.00475215 1.17963e-05 5.30923e-23
0.00473529 1.1619e-05 0
0.00473529 1.1619e-05 0
0.00471844 1.14447e-05 0
0.00471844 1.14447e-05 0
0.0047016 1.12744e-05 0
0.0047016 1.12744e-05 0
0.00468478 1.11079e-05 0
0.00468478 1.11079e-05 0
0.00466796 1.09436e-05 -9.84843e-23
0.00466796 1.09436e-05 -9.84843e-23
0.00465115 1.07797e-05 -1.96313e-22
0.00465115 1.07797e-05 -1.96313e-22
0.00463435 1.06148e-05 -9.78249e-23
0.00463435 1.06148e-05 -9.78249e-23
0.00461758 1.04498e-05 0
0.00461758 1.04498e-05 0
0.00460084 1.02864e-05 0
0.00460084 1.02864e-05 0
0.00458412 1.01267e-05 9.26958e-23
0.00458412 1.01267e-05 9.26958e-23
0.00456743 9.97077e-06 9.31924e-23
0.00456743 9.97077e-06 9.31924e-23
0.00455076 9.81709e-06 0
0.00455076 9.81709e-06 0
0.00453411 9.66312e-06 0
0.00453411 9.66312e-06 0
0.00451749 9.50748e-06 8.81767e-23
0.00451749 9.50748e-06 8.81767e-23
0.00450091 9.35112e-06 1.59639e-24
0.00450091 9.35112e-06 1.59639e-24
0.00448436 9.19641e-06 -8.75392e-23
0.00448436 9.19641e-06 -8.75392e-23
0.00446785 9.0449e-06 0
0.00446785 9.0449e-06 0
0.00445139 8.89618e-06 -8.37509e-23
0.00445139 8.89618e-06 -8.37509e-23
0.00443495 8.74857e-06 -1.66875e-22
0.00443495 8.74857e-06 -1.66875e-22
0.00441856 8.60067e-06 -8.31199e-23
0.00441856 8.60067e-06 -8.31199e-23
0.0044022 8.45219e-06 0
0.0044022 8.45219e-06 0
0.00438589 8.30395e-06 7.94129e-23
0.00438589 8.30395e-06 7.94129e-23
0.00436962 8.15737e-06 1.52055e-24
0.00436962 8.15737e-06 1.52055e-24
0.00435341 8.01362e-06 -7.87864e-23
0.00435341 8.01362e-06 -7.87864e-23
0.00433724 7.87255e-06 0
0.00433724 7.87255e-06 0
0.00432111 7.73298e-06 -7.51572e-23
0.00432111 7.73298e-06 -7.51572e-23
0.00430501 7.59384e-06 -7.55894e-23
0.00430501 7.59384e-06 -7.55894e-23
0.00428896 7.45513e-06 0
0.00428896 7.45513e-06 0
0.00427294 7.31771e-06 -7.20163e-23
0.00427294 7.31771e-06 -7.20163e-23
0.00425695 7.18223e-06 -7.24353e-23
0.00425695 7.18223e-06 -7.24353e-23
0.004241 7.04943e-06 -6.99452e-23
0.004241 7.04943e-06 -6.99452e-23
0.00422507 6.92034e-06 -7.03554e-23
0.00422507 6.92034e-06 -7.03554e-23
0.00420916 6.79566e-06 0
0.00420916 6.79566e-06 0
0.00419324 6.67577e-06 0
0.00419324 6.67577e-06 0
0.0041773 6.56122e-06 6.58554e-23
0.0041773 6.56122e-06 6.58554e-23
0.0041613 6.45231e-06 6.62473e-23
0.0041613 6.45231e-06 6.62473e-23
0.00414523 6.35022e-06 0
0.00414523 6.35022e-06 0
0.00412904 6.25782e-06 0
0.00412904 6.25782e-06 0
0.00411268 6.17558e-06 0
0.00411268 6.17558e-06 0
0.00409607 6.11412e-06 0
0.00409607 6.11412e-06 0
0.00407916 6.06114e-06 0
0.00407916 6.06114e-06 0
0.00406171 6.06373e-06 5.8857e-23
0.00406171 6.06373e-06 5.8857e-23
0.00404385 6.03632e-06 1.1709e-22
0.00404385 6.03632e-06 1.1709e-22
0.00402469 6.18952e-06 5.8228e-23
0.00402469 6.18952e-06 5.8228e-23
0.0040054 6.15023e-06 0