/*--------------------------------*- C++ -*----------------------------------*\
| =========                 |                                                 |
| \\      /  F ield         | OpenFOAM: The Open Source CFD Toolbox           |
|  \\    /   O peration     | Version:  2.1.x                                 |
|   \\  /    A nd           | Web:      www.OpenFOAM.org                      |
|    \\/     M anipulation  |                                                 |
\*---------------------------------------------------------------------------*/
FoamFile
{
    version     2.0;
    format      ascii;
    class       volScalarField;
    location    "0.007";
    object      k;
}
// * * * * * * * * * * * * * * * * * * * * * * * * * * * * * * * * * * * * * //

dimensions      [0 2 -2 0 0 0 0];

internalField   nonuniform List<scalar> 
12225
(
9.0077
9.03377
6.92598
4.97161
3.90404
3.3173
2.90617
2.64287
2.39465
2.25877
2.10059
2.04635
1.9102
1.88064
1.75235
1.76061
1.67576
1.68125
2.43388
4.9958
5.36583
5.08966
4.54022
4.07742
3.64834
3.32022
3.01133
2.78499
2.56782
2.42661
2.26862
2.15395
2.04102
1.94133
1.8658
1.80154
0.192578
1.24098
1.83721
2.34408
2.55276
2.55775
2.52091
2.43056
2.32775
2.16823
2.03995
1.87699
1.80677
1.68473
1.629
1.51007
1.44707
1.39657
0.0103277
0.15854
0.368331
0.566534
0.76369
0.871653
0.928169
0.969243
1.00423
1.00244
0.993783
0.960829
0.941807
0.917341
0.894379
0.846918
0.794106
0.777002
0.000469051
0.0119985
0.0415187
0.0670565
0.118949
0.16769
0.200313
0.232117
0.264562
0.290485
0.301981
0.300993
0.298285
0.297896
0.297277
0.29117
0.265596
0.261235
3.2656e-05
0.000660645
0.00289372
0.0053572
0.0106594
0.0198115
0.0282737
0.0338469
0.0399259
0.049893
0.0566237
0.0577273
0.0587856
0.0637796
0.0670023
0.0661936
0.0617219
0.0613113
2.13615e-05
5.68292e-05
0.000182677
0.000369583
0.000758365
0.00174166
0.00312346
0.00398243
0.00461283
0.00548134
0.00590523
0.00613363
0.0068641
0.00925719
0.0106027
0.0107448
0.0104754
0.0103309
2.77817e-05
3.05182e-05
3.71045e-05
5.23187e-05
8.53418e-05
0.000181425
0.000347719
0.000459162
0.000503796
0.000516829
0.000518845
0.000534696
0.000635889
0.00108034
0.00153175
0.00165909
0.00163462
0.00151294
2.34517e-05
2.54259e-05
3.12607e-05
3.37946e-05
3.79159e-05
4.84241e-05
7.92902e-05
0.000109239
0.00011869
0.000118037
0.000112422
0.000108044
0.000108849
0.000126306
0.000183654
0.000202793
0.000198549
0.000200864
2.14705e-05
2.54774e-05
2.83654e-05
2.89709e-05
2.92208e-05
3.06158e-05
3.74997e-05
4.84777e-05
5.4321e-05
5.55866e-05
5.52749e-05
5.43142e-05
5.44977e-05
5.80992e-05
6.27496e-05
6.30057e-05
5.99728e-05
5.9308e-05
2.90585e-05
3.08955e-05
2.71071e-05
2.68425e-05
3.21931e-05
4.74946e-05
5.35444e-05
5.36122e-05
5.00912e-05
4.52012e-05
4.3078e-05
4.23663e-05
4.17731e-05
4.16507e-05
4.16803e-05
4.18475e-05
4.1547e-05
4.1581e-05
2.28233e-05
2.31636e-05
2.99372e-05
3.52157e-05
3.55485e-05
3.446e-05
3.34629e-05
3.36357e-05
3.4622e-05
3.71686e-05
4.43777e-05
5.60673e-05
6.34389e-05
6.64558e-05
6.71215e-05
6.63013e-05
6.46095e-05
6.09037e-05
2.38131e-05
2.69936e-05
3.0462e-05
3.14361e-05
3.1184e-05
2.91675e-05
2.6924e-05
2.6287e-05
2.62786e-05
2.65729e-05
2.73587e-05
2.8665e-05
3.17701e-05
3.63691e-05
4.07778e-05
4.47514e-05
4.76723e-05
4.78222e-05
2.3846e-05
2.33183e-05
2.24575e-05
2.24729e-05
2.44551e-05
3.45794e-05
4.17919e-05
4.21057e-05
3.88664e-05
3.33749e-05
3.17896e-05
3.18928e-05
3.26052e-05
3.27926e-05
3.27548e-05
3.3507e-05
3.93531e-05
4.63205e-05
2.23694e-05
2.49363e-05
2.68731e-05
2.6258e-05
2.50729e-05
2.51957e-05
2.64104e-05
3.09371e-05
4.04638e-05
4.66027e-05
4.80925e-05
4.77856e-05
4.59447e-05
3.98699e-05
3.43997e-05
3.08505e-05
3.0088e-05
3.38937e-05
2.27399e-05
2.50467e-05
2.68979e-05
2.63659e-05
2.57184e-05
2.61027e-05
2.85543e-05
3.80373e-05
4.69728e-05
5.00117e-05
4.98595e-05
4.71141e-05
3.85173e-05
3.19585e-05
2.88043e-05
2.76739e-05
2.77946e-05
3.43792e-05
2.19108e-05
2.36623e-05
2.57487e-05
2.63649e-05
2.5901e-05
2.54348e-05
2.65883e-05
3.43681e-05
5.43075e-05
6.44137e-05
6.57177e-05
6.35924e-05
5.35577e-05
4.24491e-05
3.57648e-05
3.16946e-05
3.05409e-05
3.32375e-05
2.44172e-05
2.4236e-05
2.43319e-05
2.71446e-05
3.25684e-05
3.27297e-05
3.16378e-05
3.20349e-05
3.47875e-05
3.60585e-05
3.62135e-05
3.65612e-05
3.82092e-05
3.93812e-05
3.937e-05
3.93936e-05
4.17059e-05
4.07192e-05
2.23516e-05
2.31482e-05
2.36694e-05
2.58166e-05
2.81262e-05
2.8266e-05
2.73507e-05
2.73087e-05
2.92787e-05
3.14817e-05
3.19894e-05
3.26973e-05
3.62806e-05
5.0021e-05
6.32024e-05
6.92936e-05
7.06937e-05
6.79896e-05
2.33846e-05
2.58529e-05
2.73881e-05
2.66838e-05
2.58317e-05
2.61655e-05
2.85381e-05
3.18862e-05
3.23709e-05
3.17436e-05
3.14908e-05
3.21389e-05
3.4878e-05
3.96411e-05
4.36852e-05
4.62136e-05
4.798e-05
5.26237e-05
2.22644e-05
2.76564e-05
3.21173e-05
3.30131e-05
3.24437e-05
2.9928e-05
2.7294e-05
2.63188e-05
2.62475e-05
2.66404e-05
2.8495e-05
3.36802e-05
3.92447e-05
4.31306e-05
4.49841e-05
4.56409e-05
4.60815e-05
4.59117e-05
2.29382e-05
2.34375e-05
2.41613e-05
2.91628e-05
3.60566e-05
4.15772e-05
4.85314e-05
5.50961e-05
5.92231e-05
6.04002e-05
6.01008e-05
5.77976e-05
5.03392e-05
4.4651e-05
4.27433e-05
4.26656e-05
4.32273e-05
4.49083e-05
2.14002e-05
2.37563e-05
2.42986e-05
2.52141e-05
2.75049e-05
3.33102e-05
5.37248e-05
9.21738e-05
0.000111282
0.000114474
0.000111379
0.000101693
9.86947e-05
9.96388e-05
0.000107491
0.000128169
0.00016743
0.000184718
2.75169e-05
2.93374e-05
3.03272e-05
3.73901e-05
5.6975e-05
0.000100312
0.000205147
0.000515666
0.000805851
0.000930155
0.000970433
0.00100089
0.00105829
0.00118478
0.00157008
0.00199638
0.00235442
0.00243932
2.09523e-05
4.63261e-05
0.000148044
0.000375987
0.000726734
0.00144144
0.00314179
0.00717203
0.0103362
0.0118007
0.0123129
0.0126652
0.0132874
0.0146026
0.0176052
0.020289
0.0227216
0.0237108
2.8454e-05
0.000639807
0.00358775
0.00962239
0.0157046
0.0263869
0.04905
0.0731593
0.0885636
0.0952234
0.0976367
0.100051
0.104973
0.113604
0.122168
0.13024
0.135328
0.139133
0.000370238
0.0163796
0.0798828
0.152322
0.216651
0.30721
0.394251
0.452654
0.480554
0.487774
0.491048
0.496313
0.503597
0.513318
0.516636
0.51626
0.514223
0.509785
0.0204931
0.291587
0.8708
1.18002
1.41682
1.63688
1.73234
1.73046
1.70577
1.64508
1.58382
1.53426
1.4864
1.44621
1.39561
1.35782
1.30287
1.27184
0.617981
3.142
4.29281
4.40691
4.28848
4.01296
3.68878
3.38747
3.12024
2.88337
2.67352
2.48477
2.3144
2.16206
2.02026
1.90385
1.77648
1.70108
6.84411
9.70804
8.56206
6.44814
5.01897
4.08381
3.45133
3.01729
2.69505
2.44065
2.22025
2.02931
1.85622
1.70727
1.57091
1.45548
1.34041
1.24984
0.000542992
0.00129719
0.0023189
0.00427245
0.00744827
0.0120957
0.0183357
0.026169
0.0354854
0.0461189
0.0578455
0.070429
0.0835973
0.0970879
0.11062
0.123892
0.136562
0.148262
0.158706
0.167722
0.175016
0.180052
0.182917
0.184034
0.182585
0.178977
0.172983
0.165166
0.155482
0.14482
0.133718
0.122563
0.111645
0.101261
0.0916436
0.0829635
0.0753521
0.0688802
0.0635816
0.059491
0.0566108
0.0550276
0.0544174
0.0551036
0.0570563
0.0602788
0.0648618
0.0708662
0.0783846
0.0874899
0.09824
0.110678
0.124822
0.140657
0.158132
0.17716
0.197624
0.219374
0.242234
0.266003
0.29047
0.315416
0.340629
0.365896
0.391012
0.415798
0.440091
0.46375
0.486664
0.508722
0.529866
0.550063
0.569239
0.587387
0.604611
0.620878
0.63587
0.64958
0.662347
0.674307
0.685533
0.696073
0.705971
0.715273
0.724014
0.732221
0.739942
0.747223
0.754071
0.760501
0.766551
0.77225
0.777629
0.782715
0.787524
0.792076
0.796391
0.800487
0.804379
0.808081
0.811606
0.814966
0.818175
0.821242
0.824178
0.826988
0.829683
0.832271
0.834761
0.837156
0.839468
0.841705
0.843862
0.845942
0.847949
0.84989
0.851766
0.853582
0.855341
0.857048
0.858706
0.860315
0.86188
0.8634
0.864879
0.866317
0.867714
0.869067
0.870388
0.871676
0.872932
0.874156
0.875347
0.876508
0.877639
0.87874
0.879813
0.880856
0.881869
0.882853
0.883809
0.884738
0.88564
0.886515
0.887361
0.888177
0.888966
0.889726
0.89046
0.891165
0.891839
0.892482
0.89309
0.893665
0.894201
0.894702
0.895152
0.895571
0.895898
0.896239
0.896346
0.896727
0.896267
0.897183
0.895195
0.897257
0.892929
0.896957
0.888943
0.895423
0.883455
0.890167
0.876257
0.878986
0.865191
0.86019
0.847216
0.816238
0.810104
0.728433
0.00289963
0.00123701
0.00153376
0.00241325
0.00369379
0.0054027
0.00750454
0.00989684
0.0124384
0.0149845
0.0173927
0.0195368
0.0212928
0.0225879
0.0233375
0.0236077
0.0233498
0.0225311
0.021207
0.0195123
0.0175361
0.0153269
0.0130632
0.0108654
0.0088044
0.00705824
0.00574946
0.00500515
0.00466835
0.00468169
0.00472554
0.00479471
0.00488337
0.00498316
0.00508952
0.00519788
0.00530551
0.0054083
0.00550897
0.00561028
0.00572212
0.00584806
0.00599279
0.00616781
0.00638423
0.00665114
0.00697972
0.00738314
0.00787748
0.00847333
0.0091862
0.0100331
0.0110283
0.0121855
0.0135208
0.0150501
0.0167894
0.0187513
0.0209547
0.0234004
0.026116
0.0290889
0.0323329
0.0358695
0.0396382
0.0437238
0.0480408
0.0525906
0.0574494
0.0624518
0.0676788
0.0731844
0.0787179
0.0844434
0.090453
0.0963406
0.102319
0.108716
0.115406
0.122271
0.129216
0.136201
0.14315
0.150047
0.156876
0.163579
0.17019
0.176684
0.183007
0.189166
0.195173
0.201037
0.206769
0.212369
0.217849
0.223224
0.228495
0.233667
0.238751
0.243753
0.248678
0.25353
0.258313
0.263033
0.267696
0.272307
0.276868
0.281383
0.285858
0.290298
0.294705
0.299083
0.303433
0.30776
0.312067
0.316357
0.320633
0.324897
0.32915
0.333395
0.337636
0.341873
0.34611
0.350346
0.354585
0.358828
0.363077
0.367334
0.371599
0.375874
0.38016
0.384458
0.38877
0.393097
0.397438
0.401795
0.406168
0.41056
0.414969
0.419397
0.423843
0.428307
0.43279
0.437294
0.441818
0.446362
0.450926
0.455509
0.460111
0.464733
0.469377
0.47404
0.478725
0.483427
0.48815
0.492892
0.497653
0.502436
0.507228
0.512071
0.516862
0.521823
0.526517
0.531748
0.53616
0.541826
0.545928
0.551798
0.556201
0.561309
0.567288
0.570714
0.578902
0.581134
0.591221
0.592014
0.605002
0.604378
0.614617
0.642938
0.00973881
0.00136347
0.00111429
0.00137442
0.00174712
0.0022162
0.00272742
0.00322291
0.00366911
0.00402314
0.00422509
0.00430299
0.00429116
0.00412801
0.00389239
0.00359731
0.00325573
0.00291931
0.00260336
0.00233367
0.0021281
0.00198844
0.00191695
0.00188951
0.00193635
0.0020402
0.00219356
0.00238859
0.00262138
0.00285831
0.00309058
0.00330714
0.00349732
0.00365152
0.00376707
0.00382549
0.00384491
0.00382089
0.00374777
0.00363746
0.0035001
0.00334054
0.00316591
0.00298146
0.00279513
0.00261055
0.00242897
0.0022553
0.00209013
0.0019327
0.00178301
0.00164085
0.00151136
0.0013995
0.00130545
0.00122933
0.0011713
0.00113148
0.00110995
0.00110468
0.00111959
0.00115449
0.0012078
0.00128245
0.0013754
0.00149213
0.00163212
0.00178866
0.00198035
0.00218419
0.00242243
0.00268318
0.00297154
0.00328491
0.00362793
0.00400404
0.00439145
0.00482392
0.0052793
0.00576671
0.00630473
0.00685051
0.00744946
0.00807828
0.00871228
0.00941222
0.01011
0.0108277
0.0116206
0.0124773
0.0133872
0.0143474
0.0153483
0.0163781
0.017439
0.0185225
0.0196182
0.0207225
0.0218327
0.0229473
0.0240652
0.0251848
0.0263047
0.027424
0.0285426
0.0296603
0.0307769
0.0318923
0.0330071
0.0341218
0.0352371
0.0363532
0.0374707
0.0385902
0.039713
0.0408402
0.0419726
0.0431107
0.0442552
0.0454072
0.0465679
0.0477384
0.0489196
0.0501122
0.0513172
0.0525356
0.0537688
0.0550178
0.0562835
0.0575669
0.0588688
0.0601901
0.0615322
0.0628959
0.0642821
0.0656916
0.0671253
0.0685841
0.0700694
0.0715819
0.0731224
0.0746915
0.0762901
0.0779194
0.0795803
0.0812741
0.0830013
0.0847625
0.0865587
0.0883909
0.0902602
0.0921679
0.0941157
0.0961018
0.0981348
0.100199
0.102332
0.10446
0.106738
0.108872
0.111414
0.113396
0.116439
0.11805
0.121728
0.123212
0.127283
0.12864
0.133429
0.134594
0.140051
0.141207
0.14732
0.148841
0.156285
0.158309
0.167973
0.171808
0.181136
0.222101
0.0247466
0.00197098
0.00112585
0.00110707
0.00122186
0.00131743
0.00142952
0.0015761
0.00165914
0.00169726
0.00170915
0.00170268
0.00168436
0.00167241
0.00166843
0.00168442
0.00172005
0.00178779
0.00188392
0.00201442
0.00217088
0.00238909
0.00268109
0.00304559
0.00347587
0.00396321
0.00449707
0.00506385
0.00564929
0.0062204
0.00674348
0.00718775
0.00752282
0.00771316
0.00778484
0.00773944
0.00753648
0.00721944
0.00681854
0.00633931
0.00582748
0.00529762
0.00477419
0.00427124
0.00380763
0.0033853
0.00300258
0.00266155
0.0023582
0.00208883
0.00185051
0.00164066
0.00145411
0.00128645
0.0011359
0.001001
0.000880452
0.00077301
0.000677603
0.000593253
0.000518959
0.00045355
0.00039593
0.00034492
0.000299653
0.000260332
0.000226858
0.000198375
0.000174814
0.00015507
0.000139418
0.000126962
0.00011766
0.000110981
0.000106899
0.000105111
0.000105152
0.000107467
0.00011111
0.000116815
0.000123923
0.000132419
0.000142994
0.000154158
0.000167611
0.000182358
0.000197501
0.000215994
0.000234351
0.000253716
0.000278175
0.000301648
0.000326917
0.000358845
0.000388203
0.000420156
0.000461474
0.000511343
0.000569144
0.000634322
0.000705777
0.000782566
0.000863871
0.00094897
0.00103727
0.00112826
0.00122147
0.00131652
0.00141313
0.00151109
0.00161021
0.00171036
0.00181141
0.00191329
0.002016
0.00211955
0.00222397
0.00232923
0.00243537
0.00254244
0.00265055
0.0027598
0.00287028
0.00298207
0.00309527
0.00321004
0.00332655
0.00344497
0.00356543
0.00368809
0.00381306
0.00394053
0.0040707
0.00420377
0.00433993
0.00447932
0.00462211
0.00476853
0.00491881
0.00507317
0.00523181
0.00539491
0.00556269
0.00573539
0.0059133
0.0060967
0.00628583
0.00648089
0.00668218
0.00688997
0.00710471
0.00732647
0.00755649
0.00779293
0.0080413
0.00829101
0.00856537
0.00882013
0.00914084
0.00937581
0.00978354
0.00996368
0.0104811
0.0106504
0.0112324
0.0113966
0.0121267
0.0122458
0.0131866
0.013242
0.0144117
0.0144875
0.0158413
0.0160839
0.0178279
0.0183228
0.0208905
0.0220617
0.0247929
0.036776
0.0642492
0.00341278
0.00105562
0.00108851
0.00113987
0.00127342
0.00133516
0.0013141
0.00133565
0.00138466
0.00142941
0.00149661
0.00156943
0.00165228
0.00176478
0.00193151
0.00216727
0.00248889
0.00292157
0.00347483
0.00418168
0.00502441
0.00599955
0.00709253
0.00830139
0.00960872
0.0110024
0.0124571
0.0139428
0.0153313
0.0165088
0.0174331
0.0179825
0.0181951
0.0180869
0.017596
0.0168543
0.0157593
0.0145782
0.013193
0.0117553
0.0103072
0.00892269
0.00764398
0.006509
0.00553169
0.00470373
0.00400966
0.00342839
0.0029388
0.00252495
0.0021734
0.00187323
0.00161559
0.00139352
0.00120152
0.00103511
0.000890654
0.000765082
0.000655918
0.000561197
0.000479344
0.000408991
0.000348858
0.000297558
0.000253508
0.000215567
0.0001829
0.000154828
0.000130741
0.000110143
9.25658e-05
7.76032e-05
6.49019e-05
5.41742e-05
4.51492e-05
3.75691e-05
3.11933e-05
2.5851e-05
2.14333e-05
1.77802e-05
1.47928e-05
1.23838e-05
1.04207e-05
8.8746e-06
7.67199e-06
6.71729e-06
6.02353e-06
5.5347e-06
5.17211e-06
4.96446e-06
4.91174e-06
4.90217e-06
4.99317e-06
5.23747e-06
5.47309e-06
5.70504e-06
6.20781e-06
6.78234e-06
7.26673e-06
8.12361e-06
9.44945e-06
1.12079e-05
1.33529e-05
1.58462e-05
1.86501e-05
2.17299e-05
2.50542e-05
2.8596e-05
3.23316e-05
3.62404e-05
4.03039e-05
4.45052e-05
4.883e-05
5.32659e-05
5.78034e-05
6.24334e-05
6.71478e-05
7.19397e-05
7.68043e-05
8.17392e-05
8.67423e-05
9.18124e-05
9.69491e-05
0.000102154
0.000107432
0.000112789
0.000118229
0.000123757
0.000129379
0.000135101
0.000140929
0.000146876
0.000152952
0.000159167
0.000165529
0.000172047
0.000178732
0.0001856
0.000192663
0.000199936
0.00020743
0.00021516
0.000223139
0.000231386
0.000239919
0.000248757
0.000257915
0.000267415
0.000277273
0.000287534
0.000298174
0.000309351
0.000320789
0.000333209
0.000345192
0.000359757
0.000371189
0.000390204
0.000398516
0.000425021
0.000430699
0.000461943
0.000468284
0.000507375
0.000511295
0.000564113
0.000563311
0.000635654
0.000630509
0.000728089
0.000726131
0.000845407
0.000866948
0.00102984
0.00109153
0.00136351
0.00153953
0.00189093
0.00370218
0.0969395
0.00598798
0.0014158
0.00120844
0.00119729
0.00114583
0.00113269
0.00128605
0.00137822
0.00145545
0.0015547
0.00168058
0.00187289
0.00216104
0.00257261
0.00313579
0.00389557
0.00490119
0.00618061
0.00776611
0.00965124
0.011842
0.0142904
0.0170177
0.0199738
0.0231615
0.0265246
0.0299497
0.0332781
0.0361746
0.0384129
0.0398019
0.0404447
0.0405959
0.0395607
0.0379106
0.0361984
0.0334468
0.0308743
0.0277763
0.0245834
0.0213322
0.0181207
0.0150878
0.0123623
0.0100256
0.00809955
0.00655589
0.00533092
0.00436111
0.00359228
0.00297955
0.00248712
0.00208724
0.00175891
0.00148657
0.00125881
0.00106721
0.000905376
0.000768274
0.0006518
0.000552601
0.000467969
0.000395744
0.000334179
0.000281785
0.000237244
0.000199419
0.000167332
0.000140141
0.000117121
9.76619e-05
8.12475e-05
6.74278e-05
5.58069e-05
4.60504e-05
3.78911e-05
3.11034e-05
2.54701e-05
2.08016e-05
1.69401e-05
1.37547e-05
1.11356e-05
8.9879e-06
7.23274e-06
5.80373e-06
4.64362e-06
3.70584e-06
2.95017e-06
2.34227e-06
1.85652e-06
1.46993e-06
1.16208e-06
9.19589e-07
7.29471e-07
5.79744e-07
4.63787e-07
3.74657e-07
3.0596e-07
2.55675e-07
2.18071e-07
1.90032e-07
1.77507e-07
1.76508e-07
1.90264e-07
2.21852e-07
2.67019e-07
3.24714e-07
3.93997e-07
4.74033e-07
5.64067e-07
6.6341e-07
7.71387e-07
8.87354e-07
1.01069e-06
1.14083e-06
1.27723e-06
1.41936e-06
1.56669e-06
1.71878e-06
1.87522e-06
2.03564e-06
2.19972e-06
2.36719e-06
2.53791e-06
2.71176e-06
2.88872e-06
3.06874e-06
3.25181e-06
3.43794e-06
3.62721e-06
3.81976e-06
4.01585e-06
4.2158e-06
4.41989e-06
4.62826e-06
4.84117e-06
5.05896e-06
5.28211e-06
5.51109e-06
5.74642e-06
5.98847e-06
6.23779e-06
6.49475e-06
6.75995e-06
7.03409e-06
7.31784e-06
7.61191e-06
7.91715e-06
8.234e-06
8.56466e-06
8.90658e-06
9.26966e-06
9.63524e-06
1.00486e-05
1.04196e-05
1.0935e-05
1.12455e-05
1.19822e-05
1.21269e-05
1.3151e-05
1.32777e-05
1.44301e-05
1.45557e-05
1.61131e-05
1.61322e-05
1.82692e-05
1.81394e-05
2.12109e-05
2.09898e-05
2.52639e-05
2.54445e-05
3.07719e-05
3.25896e-05
4.08156e-05
4.5618e-05
6.05654e-05
7.72921e-05
0.000103226
0.000273857
0.202416
0.0130774
0.001458
0.00108517
0.00113594
0.00133814
0.00158675
0.00157751
0.00150886
0.00165303
0.00190829
0.00228463
0.00282636
0.00359831
0.00460052
0.00603672
0.00795146
0.0104143
0.0134949
0.0172003
0.0215606
0.0266099
0.0325368
0.0382431
0.0440198
0.0502722
0.0565801
0.0629658
0.06894
0.0732552
0.0758664
0.0771732
0.0774942
0.075745
0.0725471
0.0683735
0.0649752
0.0597823
0.0554426
0.0504063
0.0454285
0.0403805
0.0350296
0.0295437
0.0242337
0.0194384
0.0152819
0.0119311
0.00930712
0.00727506
0.00571232
0.00451584
0.0036008
0.00289854
0.00235495
0.00192889
0.00159016
0.00131718
0.00109466
0.000911698
0.000760375
0.000634739
0.000530162
0.000442936
0.000370054
0.000309068
0.000257988
0.00021518
0.000179294
0.00014921
0.000123995
0.000102871
8.5188e-05
7.04035e-05
5.80608e-05
4.77732e-05
3.92126e-05
3.21033e-05
2.62127e-05
2.1344e-05
1.73306e-05
1.40314e-05
1.13274e-05
9.1177e-06
7.31735e-06
5.85492e-06
4.67059e-06
3.71461e-06
2.94567e-06
2.32906e-06
1.8361e-06
1.44321e-06
1.13104e-06
8.8382e-07
6.88659e-07
5.35056e-07
4.14544e-07
3.20277e-07
2.46792e-07
1.89696e-07
1.45443e-07
1.11289e-07
8.50227e-08
6.48508e-08
4.94656e-08
3.79899e-08
2.95097e-08
2.34552e-08
1.94014e-08
1.67157e-08
1.54644e-08
1.52261e-08
1.56276e-08
1.68523e-08
1.86443e-08
2.09173e-08
2.3602e-08
2.66422e-08
2.99919e-08
3.36137e-08
3.74771e-08
4.1556e-08
4.58276e-08
5.02734e-08
5.4878e-08
5.96291e-08
6.45166e-08
6.95309e-08
7.46649e-08
7.99124e-08
8.52694e-08
9.07352e-08
9.63118e-08
1.02004e-07
1.07816e-07
1.13746e-07
1.19801e-07
1.25986e-07
1.32315e-07
1.38798e-07
1.4545e-07
1.52283e-07
1.5931e-07
1.66538e-07
1.73983e-07
1.81667e-07
1.89609e-07
1.97836e-07
2.06372e-07
2.15224e-07
2.24478e-07
2.33999e-07
2.44217e-07
2.54295e-07
2.66197e-07
2.75999e-07
2.91669e-07
2.98593e-07
3.21985e-07
3.24592e-07
3.54245e-07
3.57785e-07
3.92965e-07
3.95508e-07
4.43346e-07
4.43956e-07
5.10864e-07
5.09022e-07
6.06201e-07
6.07256e-07
7.39823e-07
7.68566e-07
9.47851e-07
1.04931e-06
1.35541e-06
1.63161e-06
2.21956e-06
3.23661e-06
4.76486e-06
1.69871e-05
0.259186
0.0202651
0.001634
0.00140754
0.00162699
0.00183606
0.0017547
0.00178415
0.00205038
0.00268666
0.00321281
0.00386487
0.00477381
0.00623309
0.00861375
0.0118962
0.0163924
0.0214784
0.0277223
0.0361792
0.046866
0.0561026
0.0634445
0.0726307
0.0816494
0.0915912
0.102589
0.112576
0.119194
0.123033
0.124911
0.125452
0.123039
0.118642
0.111196
0.10196
0.0940819
0.0854891
0.078189
0.0712195
0.0649581
0.0586251
0.0528008
0.0471286
0.0412537
0.0348002
0.0279809
0.0216818
0.016753
0.0128514
0.00981856
0.0074817
0.00570624
0.0043761
0.00338871
0.00265619
0.00210826
0.00169233
0.00137089
0.00111806
0.000916171
0.000753112
0.000620352
0.000511671
0.000422373
0.000348812
0.00028811
0.000237956
0.000196474
0.000162135
0.000133691
0.000110124
9.06007e-05
7.44319e-05
6.10479e-05
4.99785e-05
4.08349e-05
3.32934e-05
2.70834e-05
2.19792e-05
1.77924e-05
1.43662e-05
1.15694e-05
9.29193e-06
7.44218e-06
5.94384e-06
4.73375e-06
3.75933e-06
2.9769e-06
2.35054e-06
1.85062e-06
1.4528e-06
1.13724e-06
8.87711e-07
6.9093e-07
5.36214e-07
4.14991e-07
3.20307e-07
2.46553e-07
1.89262e-07
1.44886e-07
1.10623e-07
8.42461e-08
6.39988e-08
4.84959e-08
3.66588e-08
2.76438e-08
2.08008e-08
1.5624e-08
1.17187e-08
8.78685e-09
6.59411e-09
4.96276e-09
3.75836e-09
2.878e-09
2.24266e-09
1.79333e-09
1.48392e-09
1.28161e-09
1.15919e-09
1.09802e-09
1.08348e-09
1.10407e-09
1.15151e-09
1.21977e-09
1.30428e-09
1.40158e-09
1.50912e-09
1.62506e-09
1.74802e-09
1.87698e-09
2.01122e-09
2.15021e-09
2.29367e-09
2.44136e-09
2.59304e-09
2.74863e-09
2.90814e-09
3.07175e-09
3.23965e-09
3.41216e-09
3.58948e-09
3.77193e-09
3.95955e-09
4.1527e-09
4.35198e-09
4.55787e-09
4.77118e-09
4.9926e-09
5.22205e-09
5.46241e-09
5.70853e-09
5.9754e-09
6.23322e-09
6.55092e-09
6.79079e-09
7.22751e-09
7.36925e-09
8.02584e-09
8.08508e-09
8.85653e-09
8.95678e-09
9.91788e-09
9.99649e-09
1.12782e-08
1.13584e-08
1.31763e-08
1.32861e-08
1.59157e-08
1.6353e-08
2.00685e-08
2.15946e-08
2.70411e-08
3.19036e-08
4.04353e-08
5.68374e-08
7.75093e-08
1.24913e-07
2.08091e-07
9.76408e-07
0.34274
0.0297653
0.00282284
0.00194472
0.0018303
0.00173093
0.00171369
0.00208537
0.00258491
0.0033267
0.00425782
0.00566763
0.00835886
0.012623
0.0175387
0.0229105
0.0299491
0.0413648
0.0565516
0.073086
0.081929
0.0936229
0.104553
0.115755
0.128973
0.1388
0.143302
0.145741
0.146942
0.147517
0.147995
0.14824
0.147997
0.147073
0.144372
0.137585
0.124589
0.109199
0.094524
0.0832015
0.0746888
0.0670958
0.0605827
0.0548696
0.0497655
0.0452414
0.0407949
0.0351671
0.0282921
0.0219728
0.0169942
0.0129485
0.00972216
0.00721532
0.00533425
0.00396313
0.00298005
0.00227742
0.00177033
0.00139726
0.00111625
0.000899672
0.000729515
0.000593883
0.000484664
0.000396122
0.000324039
0.0002652
0.000217079
0.000177668
0.000145359
0.000118861
9.71211e-05
7.92834e-05
6.46472e-05
5.26415e-05
4.27999e-05
3.47389e-05
2.81431e-05
2.27531e-05
1.83555e-05
1.47745e-05
1.18642e-05
9.50371e-06
7.59347e-06
6.0513e-06
4.80963e-06
3.81261e-06
3.01405e-06
2.37623e-06
1.86821e-06
1.46473e-06
1.14525e-06
8.92979e-07
6.94335e-07
5.38406e-07
4.16356e-07
3.21101e-07
2.46976e-07
1.89467e-07
1.44964e-07
1.10622e-07
8.42019e-08
6.39289e-08
4.84129e-08
3.65722e-08
2.75611e-08
2.07206e-08
1.5542e-08
1.16318e-08
8.68616e-09
6.4724e-09
4.81276e-09
3.57174e-09
2.64616e-09
1.95753e-09
1.44642e-09
1.06797e-09
7.88501e-10
5.82705e-10
4.31666e-10
3.21237e-10
2.40864e-10
1.82704e-10
1.40936e-10
1.11246e-10
9.04225e-11
7.61439e-11
6.66311e-11
6.06703e-11
5.72837e-11
5.57896e-11
5.57063e-11
5.66566e-11
5.83735e-11
6.06761e-11
6.34358e-11
6.65541e-11
6.99626e-11
7.3615e-11
7.74837e-11
8.15491e-11
8.57989e-11
9.0219e-11
9.48079e-11
9.95744e-11
1.04524e-10
1.09675e-10
1.15042e-10
1.20612e-10
1.26473e-10
1.32454e-10
1.39021e-10
1.45237e-10
1.53231e-10
1.58769e-10
1.7014e-10
1.72871e-10
1.89824e-10
1.91338e-10
2.103e-10
2.13028e-10
2.37388e-10
2.40278e-10
2.72221e-10
2.7703e-10
3.23274e-10
3.3241e-10
4.03396e-10
4.2641e-10
5.40306e-10
6.03756e-10
7.61186e-10
1.05911e-09
1.33398e-09
2.16118e-09
3.34235e-09
5.87784e-09
1.16488e-08
6.30204e-08
0.481163
0.0477473
0.00330857
0.00162287
0.00165174
0.00189419
0.00309038
0.00420593
0.00454747
0.0052255
0.0068755
0.00940693
0.0132944
0.0190549
0.0274873
0.039329
0.0579451
0.0874099
0.105749
0.11775
0.127794
0.134972
0.142118
0.147957
0.150377
0.151086
0.150704
0.149584
0.14963
0.150303
0.15117
0.151749
0.15218
0.152556
0.152372
0.150793
0.146937
0.137579
0.119864
0.0992214
0.0864874
0.0759274
0.0668721
0.0593444
0.0534145
0.0488001
0.0449655
0.0416612
0.0380764
0.0331508
0.0271385
0.0214944
0.0166484
0.012495
0.00910477
0.00652356
0.00465149
0.00334116
0.00244124
0.00182391
0.00139414
0.00108702
0.000860626
0.000688761
0.000555109
0.000449321
0.000364599
0.000296248
0.000240851
0.000195822
0.000159157
0.000129283
0.000104943
8.51171e-05
6.89757e-05
5.584e-05
4.51553e-05
3.64673e-05
2.9407e-05
2.36742e-05
1.90248e-05
1.52593e-05
1.22139e-05
9.75489e-06
7.77307e-06
6.17923e-06
4.90041e-06
3.87666e-06
3.05893e-06
2.40742e-06
1.88972e-06
1.47946e-06
1.15525e-06
8.9967e-07
6.9875e-07
5.41278e-07
4.18189e-07
3.22229e-07
2.47634e-07
1.89814e-07
1.45122e-07
1.1067e-07
8.41881e-08
6.38821e-08
4.83514e-08
3.65067e-08
2.74983e-08
2.06634e-08
1.54917e-08
1.15883e-08
8.64909e-09
6.44108e-09
4.7865e-09
3.5497e-09
2.62738e-09
1.94108e-09
1.43145e-09
1.05381e-09
7.74555e-10
5.68461e-10
4.16636e-10
3.0499e-10
2.23041e-10
1.63e-10
1.19082e-10
8.70027e-11
6.35994e-11
4.65505e-11
3.4149e-11
2.51462e-11
1.86195e-11
1.38948e-11
1.04809e-11
8.01982e-12
6.25208e-12
4.98963e-12
4.09532e-12
3.46867e-12
3.03713e-12
2.74766e-12
2.56308e-12
2.45686e-12
2.40017e-12
2.39765e-12
2.41949e-12
2.46698e-12
2.53452e-12
2.61796e-12
2.71469e-12
2.82182e-12
2.94101e-12
3.06552e-12
3.2093e-12
3.34241e-12
3.52816e-12
3.64181e-12
3.919e-12
3.96324e-12
4.37023e-12
4.40812e-12
4.85545e-12
4.92783e-12
5.51504e-12
5.63017e-12
6.435e-12
6.68284e-12
8.04042e-12
8.55997e-12
1.12378e-11
1.23013e-11
1.80596e-11
2.1533e-11
3.06615e-11
5.59185e-11
8.45414e-11
1.91321e-10
3.7984e-10
8.48387e-10
2.13001e-09
8.32833e-09
0.558663
0.0901282
0.00501406
0.00166222
0.00186597
0.00237572
0.00372826
0.00463612
0.00518274
0.00728071
0.0118639
0.0179431
0.0252289
0.0347464
0.04916
0.0741565
0.109261
0.126688
0.137376
0.142837
0.144962
0.145761
0.149671
0.151339
0.151659
0.15065
0.149416
0.149404
0.150887
0.154468
0.156167
0.156568
0.155182
0.153484
0.150571
0.149466
0.148223
0.144433
0.134801
0.116802
0.0968306
0.0820614
0.0719477
0.0639546
0.0568147
0.0508251
0.0463747
0.043243
0.040828
0.0384105
0.035217
0.0310332
0.0261565
0.021003
0.0158141
0.0113604
0.00794076
0.00545312
0.00374291
0.00260449
0.00185702
0.00136366
0.00103066
0.000798028
0.000629121
0.000502034
0.000403672
0.000326018
0.000263934
0.000213905
0.000173381
0.000140414
0.000113537
9.16572e-05
7.38921e-05
5.95025e-05
4.78691e-05
3.84701e-05
3.08761e-05
2.47459e-05
1.98031e-05
1.58221e-05
1.26192e-05
1.00457e-05
7.98105e-06
6.32748e-06
5.00563e-06
3.95085e-06
3.1109e-06
2.44365e-06
1.91485e-06
1.49677e-06
1.16703e-06
9.07623e-07
7.0404e-07
5.44722e-07
4.20404e-07
3.23648e-07
2.48522e-07
1.9033e-07
1.45388e-07
1.10785e-07
8.42101e-08
6.38535e-08
4.83013e-08
3.64488e-08
2.74387e-08
2.06078e-08
1.54424e-08
1.15457e-08
8.61266e-09
6.41031e-09
4.76092e-09
3.52877e-09
2.61043e-09
1.92742e-09
1.42049e-09
1.04507e-09
7.67614e-10
5.62961e-10
4.12266e-10
3.01494e-10
2.20217e-10
1.60692e-10
1.17164e-10
8.53715e-11
6.21736e-11
4.52661e-11
3.29601e-11
2.40133e-11
1.75116e-11
1.27855e-11
9.34799e-12
6.8474e-12
5.02874e-12
3.70611e-12
2.74336e-12
2.0411e-12
1.52765e-12
1.15158e-12
8.75893e-13
6.73557e-13
5.24721e-13
4.14972e-13
3.33733e-13
2.73588e-13
2.29016e-13
1.95947e-13
1.71449e-13
1.53247e-13
1.4007e-13
1.30309e-13
1.24058e-13
1.19284e-13
1.16766e-13
1.15495e-13
1.16698e-13
1.15519e-13
1.21386e-13
1.20961e-13
1.30344e-13
1.31428e-13
1.46426e-13
1.51696e-13
1.81426e-13
1.96471e-13
2.7731e-13
3.15785e-13
5.92603e-13
7.29098e-13
1.47798e-12
2.70115e-12
5.36099e-12
1.43479e-11
3.21446e-11
8.51951e-11
2.19622e-10
5.40357e-10
1.37758e-09
3.59674e-09
0.594383
0.117814
0.00741031
0.00254984
0.00329803
0.00360544
0.00403976
0.00485495
0.0060099
0.00885418
0.0140114
0.0216757
0.0330527
0.0529368
0.0851697
0.129306
0.149058
0.154827
0.155555
0.152446
0.151265
0.155397
0.160406
0.162604
0.166055
0.171137
0.178004
0.185911
0.193732
0.199064
0.202703
0.204742
0.201431
0.189478
0.165654
0.151143
0.14436
0.141636
0.136783
0.124745
0.102442
0.0843539
0.0727169
0.0652004
0.0583441
0.0518472
0.046843
0.0435123
0.0412577
0.0394598
0.0375521
0.0349283
0.031518
0.0278396
0.0238118
0.0189933
0.013816
0.00940504
0.00627559
0.00414773
0.00275969
0.00187547
0.00131615
0.000957758
0.000720774
0.000557202
0.000439099
0.000350367
0.000281637
0.000227286
0.000183758
0.000148665
0.000120225
9.71179e-05
7.83348e-05
6.30686e-05
5.06687e-05
4.0618e-05
3.24971e-05
2.59513e-05
2.06873e-05
1.64632e-05
1.30803e-05
1.03763e-05
8.2179e-06
6.49646e-06
5.12541e-06
4.03525e-06
3.17015e-06
2.48499e-06
1.94353e-06
1.51657e-06
1.18055e-06
9.1673e-07
7.10159e-07
5.48798e-07
4.23048e-07
3.25317e-07
2.4956e-07
1.90964e-07
1.45756e-07
1.10982e-07
8.42982e-08
6.3869e-08
4.8273e-08
3.64e-08
2.73834e-08
2.05531e-08
1.53914e-08
1.15006e-08
8.57449e-09
6.37884e-09
4.73528e-09
3.50791e-09
2.59345e-09
1.9136e-09
1.40929e-09
1.03605e-09
7.6043e-10
5.57289e-10
4.07819e-10
2.98022e-10
2.17512e-10
1.58585e-10
1.15523e-10
8.40899e-11
6.11708e-11
4.44803e-11
3.23442e-11
2.35311e-11
1.71342e-11
1.24894e-11
9.11436e-12
6.66141e-12
4.87916e-12
3.58416e-12
2.64218e-12
1.95524e-12
1.45274e-12
1.08431e-12
8.13743e-13
6.14721e-13
4.67899e-13
3.59124e-13
2.78103e-13
2.1743e-13
1.71706e-13
1.3699e-13
1.10493e-13
9.00669e-14
7.43813e-14
6.20191e-14
5.26531e-14
4.46893e-14
3.92248e-14
3.3615e-14
3.06916e-14
2.6442e-14
2.51649e-14
2.21283e-14
2.18505e-14
2.06441e-14
2.21909e-14
2.25674e-14
2.90434e-14
3.2821e-14
6.22659e-14
7.86815e-14
2.12551e-13
3.27623e-13
7.49644e-13
1.84376e-12
4.09118e-12
1.25295e-11
2.82917e-11
7.44226e-11
1.96874e-10
4.63101e-10
1.17159e-09
2.81136e-09
0.617325