/*--------------------------------*- C++ -*----------------------------------*\
| =========                 |                                                 |
| \\      /  F ield         | OpenFOAM: The Open Source CFD Toolbox           |
|  \\    /   O peration     | Version:  2.1.x                                 |
|   \\  /    A nd           | Web:      www.OpenFOAM.org                      |
|    \\/     M anipulation  |                                                 |
\*---------------------------------------------------------------------------*/
FoamFile
{
    version     2.0;
    format      ascii;
    class       volScalarField;
    location    "0.007";
    object      k_0;
}
// * * * * * * * * * * * * * * * * * * * * * * * * * * * * * * * * * * * * * //

dimensions      [0 2 -2 0 0 0 0];

internalField   nonuniform List<scalar> 
12225
(
9.0098
9.0269
6.92135
4.96864
3.90174
3.31576
2.90453
2.64107
2.39315
2.25818
2.1009
2.04654
1.90983
1.8799
1.75184
1.76154
1.6761
1.6815
2.43012
4.99265
5.36418
5.08895
4.54026
4.07796
3.64807
3.31951
3.01034
2.78399
2.56771
2.42659
2.26843
2.15362
2.04097
1.94184
1.86585
1.80173
0.192247
1.24174
1.83716
2.34619
2.55566
2.56025
2.52311
2.43199
2.32808
2.16668
2.03778
1.87597
1.80671
1.68451
1.62815
1.50932
1.44763
1.3967
0.0103262
0.158768
0.367482
0.567062
0.764741
0.871292
0.927758
0.97022
1.00491
1.00288
0.99376
0.960254
0.941943
0.917572
0.892986
0.845001
0.793913
0.777108
0.000468075
0.0119693
0.0410837
0.0667487
0.119684
0.167955
0.20042
0.232668
0.265429
0.291129
0.301829
0.300595
0.298177
0.297899
0.297056
0.290224
0.264259
0.261249
3.24272e-05
0.000660069
0.00284853
0.00532851
0.0108076
0.0199853
0.0282882
0.0337382
0.0400689
0.0501503
0.0565406
0.0575591
0.0588182
0.0641993
0.0669034
0.0659301
0.061378
0.0613118
2.14868e-05
5.69146e-05
0.000180119
0.000369574
0.000770437
0.00179153
0.00313915
0.00395747
0.00458752
0.00544294
0.0058485
0.00611598
0.00698573
0.00944323
0.0106157
0.0107046
0.0104049
0.0102907
2.73987e-05
2.99154e-05
3.66363e-05
5.22481e-05
8.6504e-05
0.000188353
0.000350514
0.00045489
0.000495121
0.000506759
0.000510693
0.000532603
0.000654219
0.00113588
0.00155061
0.00165088
0.00161918
0.00149541
2.31327e-05
2.53452e-05
3.12147e-05
3.37563e-05
3.81239e-05
4.93789e-05
8.12871e-05
0.000109423
0.000117491
0.000116472
0.000110598
0.000106968
0.000108473
0.000129988
0.000187252
0.000202336
0.00019757
0.000201681
2.15191e-05
2.56563e-05
2.83639e-05
2.88657e-05
2.91374e-05
3.07499e-05
3.83627e-05
4.9089e-05
5.44869e-05
5.55041e-05
5.5072e-05
5.41869e-05
5.45135e-05
5.86464e-05
6.28176e-05
6.28475e-05
5.95318e-05
5.92288e-05
2.92539e-05
3.03171e-05
2.65713e-05
2.66504e-05
3.29903e-05
4.82936e-05
5.36343e-05
5.34709e-05
4.94785e-05
4.48224e-05
4.28734e-05
4.221e-05
4.1677e-05
4.16033e-05
4.16471e-05
4.1766e-05
4.13138e-05
4.15335e-05
2.2522e-05
2.31731e-05
3.03678e-05
3.52045e-05
3.54101e-05
3.42243e-05
3.33549e-05
3.35813e-05
3.46651e-05
3.74292e-05
4.53128e-05
5.68407e-05
6.37556e-05
6.63969e-05
6.68287e-05
6.58172e-05
6.39331e-05
6.04702e-05
2.36708e-05
2.71459e-05
3.05236e-05
3.13253e-05
3.09689e-05
2.88372e-05
2.67849e-05
2.62568e-05
2.62748e-05
2.66281e-05
2.74563e-05
2.88517e-05
3.22048e-05
3.68234e-05
4.11856e-05
4.50559e-05
4.74173e-05
4.7389e-05
2.37591e-05
2.31825e-05
2.23947e-05
2.24657e-05
2.47381e-05
3.53314e-05
4.18408e-05
4.19084e-05
3.81927e-05
3.30025e-05
3.16854e-05
3.18676e-05
3.25742e-05
3.2711e-05
3.27131e-05
3.37297e-05
4.0164e-05
4.66761e-05
2.23134e-05
2.49463e-05
2.6724e-05
2.6048e-05
2.49977e-05
2.51793e-05
2.65252e-05
3.15396e-05
4.09891e-05
4.67343e-05
4.79661e-05
4.75741e-05
4.54388e-05
3.90781e-05
3.38848e-05
3.0549e-05
2.99636e-05
3.32773e-05
2.22772e-05
2.51516e-05
2.68765e-05
2.62273e-05
2.56353e-05
2.60868e-05
2.88509e-05
3.88533e-05
4.72688e-05
4.98825e-05
4.95806e-05
4.63589e-05
3.75441e-05
3.14262e-05
2.85567e-05
2.75879e-05
2.77058e-05
3.61772e-05
2.14089e-05
2.37373e-05
2.58194e-05
2.63668e-05
2.58208e-05
2.54154e-05
2.67693e-05
3.56283e-05
5.5423e-05
6.45276e-05
6.5411e-05
6.28654e-05
5.20233e-05
4.1419e-05
3.50947e-05
3.13147e-05
3.04196e-05
3.30393e-05
2.43765e-05
2.41353e-05
2.43453e-05
2.74619e-05
3.25577e-05
3.25717e-05
3.15316e-05
3.21334e-05
3.49931e-05
3.60707e-05
3.62094e-05
3.6627e-05
3.8373e-05
3.93838e-05
3.93207e-05
3.93707e-05
4.1352e-05
4.01125e-05
2.24287e-05
2.3184e-05
2.37213e-05
2.60025e-05
2.81316e-05
2.81685e-05
2.7244e-05
2.73156e-05
2.94883e-05
3.14862e-05
3.19541e-05
3.27844e-05
3.70621e-05
5.17644e-05
6.4167e-05
6.95108e-05
7.0443e-05
6.754e-05
2.36315e-05
2.59258e-05
2.73008e-05
2.65429e-05
2.57827e-05
2.61646e-05
2.87733e-05
3.19511e-05
3.23017e-05
3.16224e-05
3.14476e-05
3.2199e-05
3.52174e-05
3.99534e-05
4.38797e-05
4.63189e-05
4.83311e-05
5.30476e-05
2.20203e-05
2.79652e-05
3.22026e-05
3.29086e-05
3.22398e-05
2.96156e-05
2.71228e-05
2.62552e-05
2.62204e-05
2.66899e-05
2.8813e-05
3.42205e-05
3.96441e-05
4.33274e-05
4.50071e-05
4.55895e-05
4.59445e-05
4.56552e-05
2.29418e-05
2.33748e-05
2.42402e-05
2.97373e-05
3.65123e-05
4.20119e-05
4.89635e-05
5.53684e-05
5.92195e-05
6.01927e-05
5.9791e-05
5.71142e-05
4.93853e-05
4.41457e-05
4.25383e-05
4.25336e-05
4.31884e-05
4.51663e-05
2.14205e-05
2.37155e-05
2.42284e-05
2.51445e-05
2.75068e-05
3.37186e-05
5.60703e-05
9.34731e-05
0.000110664
0.000112969
0.000109058
9.9504e-05
9.70906e-05
9.83726e-05
0.000107452
0.000129732
0.000168163
0.000184658
2.75662e-05
2.8841e-05
2.98189e-05
3.71902e-05
5.73964e-05
0.000102228
0.000212979
0.000531281
0.00080332
0.000915104
0.000951465
0.000983195
0.00104472
0.00118373
0.00159726
0.00201076
0.00234592
0.00241796
2.10589e-05
4.64791e-05
0.000146495
0.000369352
0.000728588
0.0014695
0.00326988
0.00733384
0.010332
0.0116744
0.0121434
0.0125097
0.0131786
0.0146396
0.0177377
0.0203809
0.0227188
0.0236127
2.86865e-05
0.000642111
0.00356776
0.00948246
0.0156733
0.0267971
0.050031
0.0737401
0.08845
0.0946225
0.0969228
0.0995276
0.10491
0.113824
0.122486
0.13048
0.13541
0.139038
0.000368827
0.0165022
0.0798454
0.151217
0.216938
0.3091
0.395971
0.453111
0.479666
0.48646
0.490122
0.495948
0.50381
0.513669
0.516778
0.516348
0.514226
0.509729
0.0203319
0.292379
0.871473
1.17928
1.41867
1.63987
1.73259
1.72985
1.70405
1.64268
1.58266
1.53398
1.48658
1.4465
1.39585
1.35798
1.30306
1.27209
0.618029
3.14473
4.29385
4.40893
4.29044
4.01366
3.68787
3.38628
3.11933
2.88272
2.67296
2.48418
2.31375
2.16146
2.01976
1.90349
1.77624
1.70088
6.84781
9.70106
8.55676
6.44659
5.01726
4.08146
3.44946
3.01632
2.69451
2.43997
2.2192
2.02801
1.8549
1.70611
1.56996
1.45471
1.33974
1.24921
0.000540818
0.00128825
0.00230083
0.00423709
0.00738596
0.0119961
0.0181892
0.0259673
0.0352216
0.0457872
0.0574404
0.0699452
0.0830292
0.0964295
0.109866
0.123038
0.135604
0.1472
0.157535
0.166443
0.173643
0.178571
0.181362
0.182445
0.180933
0.17731
0.171325
0.163543
0.153916
0.143363
0.132377
0.121348
0.110562
0.100311
0.0908243
0.0822704
0.0747781
0.0684171
0.0632207
0.0592236
0.0564327
0.054928
0.0543866
0.0551496
0.0571725
0.0604652
0.0651188
0.0711948
0.0787864
0.0879662
0.0987906
0.111302
0.125517
0.14142
0.158958
0.178044
0.198558
0.22035
0.243244
0.267038
0.291521
0.316476
0.341689
0.36695
0.392054
0.416823
0.441095
0.464731
0.48762
0.509652
0.530769
0.55094
0.570089
0.588214
0.605417
0.621663
0.636626
0.650318
0.663072
0.67502
0.686236
0.696768
0.70666
0.715956
0.724693
0.732897
0.740617
0.747897
0.754744
0.761175
0.767225
0.772926
0.778308
0.783396
0.788209
0.792764
0.797082
0.801182
0.805078
0.808784
0.812313
0.815678
0.818891
0.821963
0.824903
0.827718
0.830418
0.83301
0.835504
0.837904
0.84022
0.842461
0.844623
0.846707
0.848719
0.850663
0.852544
0.854363
0.856127
0.857838
0.859499
0.861112
0.86268
0.864204
0.865686
0.867128
0.868528
0.869884
0.871208
0.8725
0.873759
0.874985
0.876179
0.877343
0.878476
0.879581
0.880656
0.881701
0.882716
0.883703
0.884661
0.885592
0.886497
0.887373
0.888221
0.88904
0.88983
0.890592
0.891327
0.892034
0.89271
0.893354
0.893964
0.89454
0.895078
0.895579
0.896031
0.89645
0.896779
0.897121
0.89723
0.897608
0.897156
0.898061
0.896092
0.898138
0.893828
0.897831
0.889845
0.896305
0.884347
0.891066
0.877142
0.87989
0.866077
0.861093
0.848101
0.817146
0.810987
0.729291
0.00289194
0.00122902
0.00152005
0.00238877
0.00365411
0.00534307
0.007421
0.00978671
0.0123005
0.0148185
0.0171994
0.0193179
0.0210508
0.0223226
0.0230557
0.0233183
0.0230483
0.0222291
0.0209095
0.0192246
0.0172658
0.0150807
0.012845
0.0106793
0.00865303
0.00693976
0.00566605
0.00495252
0.00463541
0.00465194
0.00469787
0.00476864
0.00485861
0.00495951
0.0050668
0.00517616
0.00528491
0.00538895
0.00549112
0.00559412
0.00570789
0.00583608
0.00598338
0.00616123
0.00638072
0.00665104
0.00698341
0.00739099
0.00788982
0.00849058
0.00920878
0.0100615
0.0110625
0.012226
0.0135679
0.0151041
0.0168504
0.0188195
0.0210301
0.0234829
0.0262055
0.0291848
0.0324352
0.0359772
0.0397508
0.0438411
0.0481605
0.0527137
0.057574
0.0625755
0.0678041
0.0733076
0.0788364
0.0845625
0.090567
0.0964444
0.102424
0.10882
0.115507
0.122366
0.129305
0.136282
0.143223
0.150111
0.156931
0.163625
0.170229
0.176713
0.183028
0.189179
0.195178
0.201036
0.206761
0.212355
0.217829
0.223199
0.228465
0.233632
0.238711
0.243709
0.24863
0.253478
0.258258
0.262975
0.267635
0.272243
0.276801
0.281315
0.285788
0.290226
0.294631
0.299007
0.303356
0.307682
0.311988
0.316277
0.320553
0.324815
0.329068
0.333313
0.337553
0.341791
0.346027
0.350264
0.354503
0.358747
0.362996
0.367253
0.371519
0.375795
0.380081
0.384381
0.388694
0.393022
0.397365
0.401723
0.406098
0.410491
0.414902
0.419332
0.42378
0.428246
0.432731
0.437237
0.441763
0.44631
0.450876
0.455461
0.460067
0.464692
0.469338
0.474005
0.478692
0.483398
0.488125
0.492869
0.497634
0.502421
0.507217
0.512063
0.51686
0.521822
0.526525
0.531752
0.53618
0.541836
0.54596
0.551818
0.55624
0.561344
0.56733
0.570763
0.578955
0.581194
0.591287
0.592087
0.605089
0.604474
0.614736
0.643136
0.00971837
0.0013563
0.00110659
0.00136128
0.00172802
0.00218947
0.00269274
0.00318074
0.00361978
0.00396765
0.00416551
0.00424157
0.00422767
0.00406549
0.00383178
0.0035403
0.00320326
0.00287204
0.0025619
0.00229791
0.00209796
0.00196289
0.00189544
0.00187072
0.00192021
0.00202529
0.00217892
0.00237334
0.00260477
0.00283941
0.00306923
0.00328335
0.00347124
0.00362342
0.00373713
0.00379462
0.00381368
0.00378928
0.00371673
0.00360732
0.0034712
0.00331317
0.00314024
0.00295757
0.00277296
0.00259008
0.00241018
0.00223807
0.0020743
0.00191813
0.00176958
0.00162848
0.00150045
0.00138997
0.00129721
0.00122228
0.00116536
0.00112657
0.00110596
0.00110142
0.00111743
0.00115296
0.00120696
0.00128224
0.00137577
0.00149308
0.00163344
0.00179047
0.00198249
0.00218653
0.0024251
0.00268591
0.00297431
0.00328763
0.00363064
0.00400632
0.00439341
0.00482565
0.00528031
0.00576748
0.00630464
0.00684947
0.00744792
0.0080751
0.00870815
0.00940701
0.0101025
0.0108194
0.0116112
0.0124666
0.0133749
0.0143334
0.0153323
0.0163601
0.0174188
0.0184999
0.0195931
0.0206949
0.0218026
0.0229146
0.02403
0.025147
0.0262643
0.0273811
0.0284971
0.0296123
0.0307264
0.0318394
0.0329517
0.034064
0.0351769
0.0362907
0.0374058
0.038523
0.0396435
0.0407684
0.0418985
0.0430343
0.0441766
0.0453264
0.0464849
0.0476532
0.0488322
0.0500226
0.0512253
0.0524415
0.0536725
0.0549193
0.0561829
0.0574641
0.0587637
0.0600828
0.0614226
0.0627841
0.0641681
0.0655753
0.0670067
0.0684633
0.0699462
0.0714563
0.0729945
0.0745612
0.0761575
0.0777843
0.0794429
0.0811342
0.0828589
0.0846176
0.0864114
0.0882409
0.0901078
0.0920128
0.0939581
0.0959416
0.0979719
0.100033
0.102164
0.104289
0.106564
0.108697
0.111233
0.113217
0.116251
0.117865
0.121535
0.123019
0.127083
0.128441
0.133224
0.134388
0.139841
0.140994
0.147104
0.148622
0.156059
0.15808
0.167743
0.171568
0.180884
0.221822
0.0247176
0.00196273
0.00111848
0.00109938
0.00121179
0.00130591
0.00141532
0.00155845
0.0016399
0.00167721
0.0016888
0.00168251
0.00166477
0.00165349
0.00165006
0.00166661
0.00170269
0.00177063
0.00186682
0.00199715
0.00215313
0.00237228
0.0026639
0.00302712
0.00345484
0.00393834
0.00446703
0.00502724
0.00560496
0.00616788
0.00668289
0.00711952
0.00744738
0.00763311
0.00770263
0.00765381
0.00745172
0.00713682
0.00673938
0.00626539
0.00575951
0.00523632
0.00471971
0.0042234
0.00376587
0.00334899
0.00297115
0.00263434
0.00233457
0.00206829
0.00183268
0.00162516
0.00144044
0.00127437
0.00112524
0.000991607
0.000872181
0.000765744
0.000671234
0.000587683
0.000514096
0.000449301
0.000392212
0.000341652
0.000296801
0.000257878
0.000224754
0.000196579
0.000173282
0.000153768
0.000138317
0.000126028
0.000116869
0.000110309
0.00010633
0.000104615
0.000104727
0.000107088
0.000110764
0.000116497
0.000123607
0.000132114
0.000142672
0.000153815
0.000167259
0.000181939
0.000197058
0.000215507
0.000233751
0.000253105
0.000277495
0.00030081
0.000326078
0.000357899
0.000387045
0.000418988
0.000460274
0.000510068
0.000567759
0.00063278
0.00070403
0.000780574
0.000861597
0.000946383
0.00103435
0.00112497
0.0012178
0.00131245
0.00140866
0.00150619
0.00160489
0.00170461
0.00180522
0.00190666
0.00200892
0.00211203
0.00221599
0.00232081
0.00242649
0.00253311
0.00264076
0.00274955
0.00285957
0.00297089
0.00308362
0.00319791
0.00331395
0.00343188
0.00355186
0.00367402
0.00379849
0.00392545
0.0040551
0.00418765
0.00432327
0.00446212
0.00460435
0.00475021
0.0048999
0.00505367
0.0052117
0.00537418
0.00554133
0.00571338
0.00589062
0.00607333
0.00626174
0.00645608
0.00665662
0.00686363
0.00707758
0.00729853
0.0075277
0.0077633
0.00801071
0.00825962
0.00853281
0.00878694
0.00910603
0.00934086
0.00974627
0.0099266
0.0104417
0.0106104
0.0111901
0.0113542
0.0120813
0.0122005
0.0131377
0.0131931
0.0143601
0.0144345
0.0157859
0.0160264
0.0177658
0.0182589
0.0208217
0.0219886
0.0247146
0.0366757
0.0640728
0.00339868
0.00105024
0.00108213
0.00113226
0.00126265
0.00132397
0.0013041
0.0013254
0.00137365
0.00141787
0.00148412
0.00155632
0.0016383
0.00175078
0.00191745
0.00215301
0.00247407
0.00290593
0.00345791
0.00416302
0.00500144
0.00597095
0.0070564
0.00825528
0.00954975
0.0109271
0.0123618
0.0138257
0.0151931
0.0163508
0.017255
0.0177923
0.0179998
0.0178818
0.0173891
0.0166494
0.0155625
0.0143888
0.013018
0.0115955
0.0101647
0.0087985
0.00753815
0.00642035
0.00545828
0.00464335
0.00395994
0.00338723
0.00290454
0.00249629
0.00214928
0.00185283
0.00159825
0.00137873
0.00118886
0.00102427
0.000881361
0.000757111
0.000649083
0.000555348
0.000474351
0.000404744
0.000345254
0.000294493
0.000250888
0.000213329
0.000180989
0.000153199
0.000129356
0.000108968
9.15707e-05
7.67623e-05
6.41934e-05
5.35794e-05
4.46509e-05
3.71516e-05
3.08438e-05
2.55603e-05
2.11925e-05
1.75809e-05
1.46289e-05
1.22485e-05
1.03089e-05
8.7829e-06
7.59553e-06
6.65344e-06
5.97041e-06
5.4888e-06
5.13182e-06
4.92961e-06
4.87987e-06
4.87104e-06
4.96502e-06
5.20973e-06
5.44189e-06
5.67549e-06
6.18046e-06
6.74828e-06
7.23166e-06
8.09321e-06
9.42035e-06
1.11764e-05
1.33157e-05
1.57999e-05
1.85918e-05
2.16568e-05
2.4964e-05
2.84866e-05
3.22012e-05
3.60873e-05
4.01265e-05
4.43023e-05
4.86005e-05
5.30089e-05
5.7518e-05
6.21188e-05
6.68032e-05
7.15646e-05
7.6398e-05
8.13012e-05
8.62723e-05
9.13099e-05
9.64136e-05
0.000101585
0.00010683
0.000112152
0.000117557
0.000123051
0.000128637
0.000134322
0.000140115
0.000146024
0.000152062
0.000158238
0.000164561
0.000171038
0.000177682
0.000184507
0.000191527
0.000198756
0.000206203
0.000213886
0.000221817
0.000230013
0.000238495
0.000247279
0.000256381
0.000265824
0.000275623
0.000285821
0.000296397
0.000307506
0.000318879
0.000331217
0.000343141
0.000357596
0.000368997
0.000387844
0.000396172
0.00042247
0.00042811
0.000459192
0.000465504
0.000504322
0.000508246
0.000560727
0.000559962
0.000631878
0.000626755
0.000723887
0.000721836
0.000840727
0.000861997
0.0010241
0.00108546
0.0013564
0.00153136
0.00188159
0.00368703
0.0968818
0.00597479
0.00141005
0.00120119
0.00119056
0.00113996
0.00112672
0.00127727
0.00136873
0.0014456
0.00154472
0.00167052
0.00186259
0.0021508
0.00256184
0.00312417
0.00388249
0.0048861
0.00616289
0.00774515
0.009625
0.0118084
0.0142461
0.0169566
0.0198887
0.0230424
0.0263612
0.0297371
0.0330192
0.0358787
0.0380859
0.0394459
0.0400675
0.0402097
0.0391811
0.037521
0.035812
0.0330796
0.0305123
0.0274378
0.0242648
0.0210379
0.0178566
0.0148583
0.012169
0.00986715
0.00797288
0.00645564
0.00525182
0.00429873
0.00354295
0.00294028
0.00245559
0.00206167
0.00173797
0.00146927
0.00124442
0.00105518
0.000895287
0.00075979
0.000644649
0.000546564
0.000462867
0.000391434
0.000330541
0.000278716
0.000234657
0.00019724
0.000165498
0.000138599
0.000115825
9.65754e-05
8.0338e-05
6.66678e-05
5.51729e-05
4.55229e-05
3.7454e-05
3.07424e-05
2.51724e-05
2.05565e-05
1.67389e-05
1.35901e-05
1.10012e-05
8.87858e-06
7.14411e-06
5.73209e-06
4.58592e-06
3.65951e-06
2.91306e-06
2.31264e-06
1.83297e-06
1.45122e-06
1.14726e-06
9.07904e-07
7.20229e-07
5.72435e-07
4.58033e-07
3.7008e-07
3.0232e-07
2.52772e-07
2.15651e-07
1.8809e-07
1.76023e-07
1.752e-07
1.89289e-07
2.20957e-07
2.66041e-07
3.23522e-07
3.92467e-07
4.72055e-07
5.61533e-07
6.60223e-07
7.67455e-07
8.82592e-07
1.00502e-06
1.13419e-06
1.26954e-06
1.41055e-06
1.55673e-06
1.7076e-06
1.86278e-06
2.02189e-06
2.18463e-06
2.35073e-06
2.52004e-06
2.69246e-06
2.86796e-06
3.04649e-06
3.22806e-06
3.41265e-06
3.60035e-06
3.79131e-06
3.98579e-06
4.1841e-06
4.38652e-06
4.59319e-06
4.80436e-06
5.02037e-06
5.24171e-06
5.46884e-06
5.70226e-06
5.94236e-06
6.18967e-06
6.44456e-06
6.70764e-06
6.97958e-06
7.26106e-06
7.55278e-06
7.85558e-06
8.1699e-06
8.49791e-06
8.83716e-06
9.19724e-06
9.56014e-06
9.96982e-06
1.03386e-05
1.08486e-05
1.11588e-05
1.18869e-05
1.20322e-05
1.30485e-05
1.31731e-05
1.43163e-05
1.44419e-05
1.59857e-05
1.60058e-05
1.81248e-05
1.79974e-05
2.1045e-05
2.08247e-05
2.50731e-05
2.52458e-05
3.05465e-05
3.23459e-05
4.05155e-05
4.52875e-05
6.01513e-05
7.6759e-05
0.000102561
0.000272432
0.202359
0.0130438
0.00145151
0.00108084
0.00113058
0.00133241
0.00158241
0.00157237
0.00150299
0.00164645
0.0019015
0.00227771
0.00281876
0.00358957
0.00459241
0.00602744
0.00794141
0.0104042
0.0134827
0.0171898
0.0215448
0.0265771
0.0324707
0.0381623
0.0438775
0.0500551
0.0562838
0.0625794
0.0685063
0.0728095
0.0753598
0.076639
0.07696
0.0752208
0.0720429
0.0678564
0.064476
0.0593177
0.0549829
0.0499706
0.045
0.0399568
0.0346136
0.0291481
0.0238867
0.0191304
0.0150259
0.0117281
0.00914748
0.00715114
0.00561701
0.004443
0.00354524
0.00285599
0.00232205
0.00190311
0.0015697
0.00130073
0.00108129
0.000900764
0.000751385
0.000627321
0.000524026
0.000437849
0.00036583
0.000305556
0.000255065
0.000212745
0.000177267
0.000147521
0.000122588
0.0001017
8.42147e-05
6.95953e-05
5.73908e-05
4.72186e-05
3.87544e-05
3.17256e-05
2.59022e-05
2.10893e-05
1.71223e-05
1.38615e-05
1.11892e-05
9.00569e-06
7.22682e-06
5.78198e-06
4.612e-06
3.66771e-06
2.90826e-06
2.2993e-06
1.8125e-06
1.42456e-06
1.11634e-06
8.72278e-07
6.79624e-07
5.28004e-07
4.09058e-07
3.16022e-07
2.43502e-07
1.8716e-07
1.43493e-07
1.09795e-07
8.38796e-08
6.39779e-08
4.88043e-08
3.749e-08
2.91312e-08
2.31696e-08
1.91799e-08
1.6541e-08
1.53238e-08
1.5096e-08
1.55091e-08
1.67313e-08
1.85137e-08
2.07712e-08
2.3435e-08
2.64498e-08
2.97702e-08
3.33593e-08
3.71869e-08
4.12274e-08
4.54582e-08
4.9861e-08
5.44207e-08
5.91252e-08
6.39644e-08
6.89291e-08
7.40121e-08
7.92072e-08
8.45108e-08
8.9922e-08
9.5443e-08
1.01078e-07
1.06832e-07
1.12704e-07
1.18698e-07
1.24822e-07
1.31088e-07
1.37507e-07
1.44094e-07
1.50859e-07
1.57817e-07
1.64974e-07
1.72346e-07
1.79955e-07
1.8782e-07
1.95966e-07
2.04419e-07
2.13186e-07
2.22348e-07
2.3178e-07
2.41894e-07
2.51884e-07
2.63653e-07
2.73393e-07
2.88858e-07
2.95794e-07
3.18882e-07
3.21476e-07
3.50894e-07
3.54382e-07
3.8918e-07
3.91729e-07
4.39093e-07
4.39727e-07
5.05963e-07
5.04161e-07
6.00462e-07
6.01449e-07
7.33044e-07
7.61328e-07
9.39369e-07
1.03983e-06
1.34339e-06
1.61742e-06
2.20098e-06
3.21032e-06
4.72864e-06
1.68834e-05
0.25892
0.0201564
0.00162885
0.00141149
0.0016256
0.00182757
0.00174389
0.00177653
0.0020431
0.00267944
0.0032073
0.00386055
0.00477708
0.00623262
0.00861243
0.0118895
0.0163859
0.021503
0.027752
0.0361869
0.0468445
0.0561683
0.0634637
0.0725333
0.0814548
0.0911979
0.102034
0.112044
0.118774
0.122598
0.124478
0.125015
0.122548
0.118109
0.110605
0.101347
0.0935761
0.0850403
0.0778039
0.0708744
0.064631
0.0583254
0.0525071
0.0468233
0.0408912
0.0343933
0.0275531
0.0213345
0.0164623
0.0126194
0.00963569
0.00734073
0.00559991
0.0042973
0.0033308
0.00261353
0.00207648
0.00166823
0.00135227
0.00110342
0.000904495
0.000743705
0.000612718
0.000505448
0.000417283
0.00034464
0.000284684
0.00023514
0.000194157
0.000160228
0.000132119
0.00010883
8.95348e-05
7.35545e-05
6.03261e-05
4.93855e-05
4.03483e-05
3.28948e-05
2.67575e-05
2.17132e-05
1.75758e-05
1.41903e-05
1.14268e-05
9.17671e-06
7.34933e-06
5.86923e-06
4.67396e-06
3.71157e-06
2.93886e-06
2.32033e-06
1.82671e-06
1.43394e-06
1.1224e-06
8.76072e-07
6.8183e-07
5.29122e-07
4.09482e-07
3.16039e-07
2.43256e-07
1.86723e-07
1.42937e-07
1.09131e-07
8.31074e-08
6.31321e-08
4.78379e-08
3.61606e-08
2.72678e-08
2.05177e-08
1.54114e-08
1.15594e-08
8.6677e-09
6.50506e-09
4.89624e-09
3.70856e-09
2.8405e-09
2.21413e-09
1.77125e-09
1.46635e-09
1.26711e-09
1.14664e-09
1.08659e-09
1.07253e-09
1.09311e-09
1.14017e-09
1.20777e-09
1.29139e-09
1.38762e-09
1.49396e-09
1.60859e-09
1.73014e-09
1.85761e-09
1.9903e-09
2.12768e-09
2.26946e-09
2.41544e-09
2.56535e-09
2.71913e-09
2.87679e-09
3.03849e-09
3.20444e-09
3.37495e-09
3.55023e-09
3.73057e-09
3.91603e-09
4.10696e-09
4.30395e-09
4.50748e-09
4.71835e-09
4.93724e-09
5.16409e-09
5.40168e-09
5.64507e-09
5.90876e-09
6.16398e-09
6.47746e-09
6.71574e-09
7.14577e-09
7.28821e-09
7.93556e-09
7.99396e-09
8.75802e-09
8.85712e-09
9.80629e-09
9.88445e-09
1.11517e-08
1.12317e-08
1.30285e-08
1.31374e-08
1.57399e-08
1.61707e-08
1.98534e-08
2.13596e-08
2.67638e-08
3.15585e-08
4.0036e-08
5.62794e-08
7.67703e-08
1.23787e-07
2.06353e-07
9.70016e-07
0.3433
0.0297287
0.00281686
0.00193264
0.00182229
0.00172703
0.00170922
0.00208444
0.00258388
0.00332185
0.00425659
0.00566497
0.0083356
0.012603
0.0175527
0.0229694
0.0300313
0.0414615
0.0567128
0.073411
0.0822789
0.0937506
0.104564
0.1155
0.128546
0.138652
0.143276
0.145739
0.146948
0.147521
0.147946
0.148167
0.147881
0.146862
0.144081
0.137155
0.123906
0.108491
0.0940866
0.0828536
0.0743775
0.0668248
0.0603471
0.0546564
0.0495719
0.0450492
0.0405448
0.0347747
0.0278587
0.0216122
0.016687
0.0126964
0.00952208
0.00706313
0.00522302
0.00388391
0.00292429
0.00223806
0.0017421
0.00137651
0.0011006
0.000887588
0.000720008
0.000586302
0.000478566
0.000391188
0.000320033
0.000261941
0.000214423
0.000175502
0.000143592
0.000117418
9.59435e-05
7.83223e-05
6.3863e-05
5.2002e-05
4.22789e-05
3.43148e-05
2.77983e-05
2.24732e-05
1.81287e-05
1.45912e-05
1.17162e-05
9.38458e-06
7.49778e-06
5.97464e-06
4.74839e-06
3.76381e-06
2.97528e-06
2.34551e-06
1.84394e-06
1.44561e-06
1.13024e-06
8.81222e-07
6.85156e-07
5.31261e-07
4.10811e-07
3.1681e-07
2.43666e-07
1.8692e-07
1.4301e-07
1.09128e-07
8.30617e-08
6.30614e-08
4.77549e-08
3.60744e-08
2.71855e-08
2.04379e-08
1.53299e-08
1.14729e-08
8.5675e-09
6.38398e-09
4.74703e-09
3.52299e-09
2.61008e-09
1.93088e-09
1.42676e-09
1.05349e-09
7.7785e-10
5.74867e-10
4.2589e-10
3.16968e-10
2.37689e-10
1.80321e-10
1.39121e-10
1.09834e-10
8.92919e-11
7.5206e-11
6.58209e-11
5.99403e-11
5.65983e-11
5.51236e-11
5.50409e-11
5.59777e-11
5.76706e-11
5.99417e-11
6.26641e-11
6.57402e-11
6.91029e-11
7.27063e-11
7.65233e-11
8.05346e-11
8.47278e-11
8.90893e-11
9.36175e-11
9.83211e-11
1.03206e-10
1.08289e-10
1.13586e-10
1.19083e-10
1.24867e-10
1.30772e-10
1.37249e-10
1.43394e-10
1.51265e-10
1.56765e-10
1.67939e-10
1.70694e-10
1.8739e-10
1.88874e-10
2.07617e-10
2.10315e-10
2.34345e-10
2.37198e-10
2.68733e-10
2.73498e-10
3.19135e-10
3.28166e-10
3.98311e-10
4.21032e-10
5.33826e-10
5.96365e-10
7.53199e-10
1.04665e-09
1.3193e-09
2.1409e-09
3.31181e-09
5.82901e-09
1.1565e-08
6.2658e-08
0.4819
0.047741
0.0032987
0.00161353
0.00164545
0.00189212
0.00309822
0.00421499
0.0045559
0.00524405
0.0069203
0.00946324
0.0133452
0.0190943
0.02757
0.0394838
0.0581483
0.0877332
0.10625
0.11817
0.128125
0.135152
0.142178
0.148111
0.150631
0.151394
0.151085
0.1498
0.149778
0.150362
0.151172
0.151701
0.152074
0.152481
0.152363
0.150789
0.146874
0.13727
0.119188
0.098714
0.0860749
0.0755679
0.0665267
0.05907
0.0532198
0.048645
0.0448329
0.0415127
0.0378477
0.0327719
0.026722
0.0211152
0.0163238
0.0122219
0.00889303
0.00636933
0.00454374
0.00326805
0.00239213
0.00179067
0.00137111
0.00107055
0.000848433
0.000679457
0.000547842
0.000443553
0.000359974
0.000292517
0.000237831
0.000193372
0.000157168
0.000127669
0.000103633
8.40558e-05
6.81162e-05
5.51443e-05
4.45925e-05
3.60123e-05
2.90395e-05
2.33777e-05
1.87859e-05
1.50671e-05
1.20595e-05
9.63108e-06
7.67402e-06
6.10016e-06
4.83744e-06
3.82662e-06
3.01928e-06
2.37608e-06
1.86502e-06
1.46004e-06
1.14002e-06
8.87769e-07
6.89473e-07
5.34066e-07
4.12599e-07
3.17908e-07
2.44304e-07
1.87255e-07
1.4316e-07
1.09171e-07
8.30456e-08
6.30136e-08
4.7693e-08
3.60089e-08
2.71229e-08
2.03811e-08
1.52799e-08
1.14298e-08
8.53076e-09
6.35296e-09
4.72102e-09
3.50117e-09
2.59149e-09
1.91459e-09
1.41194e-09
1.03947e-09
7.64037e-10
5.60759e-10
4.11006e-10
3.0088e-10
2.20046e-10
1.60819e-10
1.17496e-10
8.58495e-11
6.27609e-11
4.59403e-11
3.37043e-11
2.48211e-11
1.83806e-11
1.37179e-11
1.03485e-11
7.91915e-12
6.17395e-12
4.92742e-12
4.04422e-12
3.42521e-12
2.99877e-12
2.7126e-12
2.53e-12
2.42468e-12
2.36838e-12
2.3656e-12
2.38675e-12
2.43332e-12
2.49969e-12
2.58176e-12
2.67693e-12
2.7824e-12
2.89972e-12
3.02241e-12
3.16389e-12
3.29531e-12
3.47776e-12
3.59064e-12
3.86247e-12
3.90705e-12
4.30812e-12
4.34481e-12
4.78597e-12
4.85756e-12
5.43582e-12
5.54954e-12
6.34237e-12
6.58762e-12
7.92554e-12
8.43988e-12
1.10827e-11
1.21382e-11
1.78511e-11
2.12817e-11
3.03838e-11
5.53406e-11
8.3894e-11
1.90405e-10
3.78049e-10
8.46328e-10
2.12643e-09
8.30189e-09
0.559589
0.08981
0.00497326
0.00166208
0.00187486
0.00238639
0.00372026
0.00462382
0.00517577
0.00726617
0.0118395
0.0179524
0.0253175
0.0349693
0.0495083
0.0746786
0.109971
0.127408
0.137925
0.143257
0.145309
0.146049
0.149973
0.15177
0.15214
0.151198
0.149796
0.149717
0.151013
0.15425
0.155847
0.156195
0.154812
0.153214
0.150528
0.149541
0.148416
0.144575
0.134695
0.116367
0.0964745
0.0817956
0.0717068
0.0636823
0.0565512
0.0506378
0.0462527
0.0431547
0.0407378
0.0382737
0.0349895
0.0307126
0.0257824
0.0206074
0.0154464
0.0110824
0.00773459
0.00531116
0.00364888
0.00254365
0.00181785
0.00133808
0.00101343
0.000785934
0.000620268
0.000495317
0.000398437
0.000321866
0.000260605
0.000211219
0.000171205
0.000138644
0.000112098
9.04914e-05
7.29504e-05
5.8744e-05
4.72594e-05
3.79799e-05
3.04823e-05
2.44299e-05
1.95499e-05
1.56195e-05
1.24573e-05
9.91646e-06
7.87808e-06
6.24559e-06
4.94064e-06
3.89938e-06
3.07023e-06
2.41159e-06
1.88964e-06
1.47699e-06
1.15156e-06
8.95552e-07
6.94646e-07
5.37432e-07
4.14762e-07
3.19293e-07
2.45169e-07
1.87755e-07
1.43417e-07
1.0928e-07
8.30643e-08
6.29834e-08
4.76423e-08
3.59509e-08
2.70634e-08
2.03257e-08
1.5231e-08
1.13876e-08
8.49464e-09
6.32246e-09
4.69569e-09
3.48045e-09
2.57471e-09
1.90108e-09
1.40111e-09
1.03082e-09
7.57173e-10
5.55321e-10
4.06685e-10
2.97423e-10
2.17254e-10
1.58537e-10
1.156e-10
8.42369e-11
6.13514e-11
4.46709e-11
3.25294e-11
2.37018e-11
1.72863e-11
1.26225e-11
9.22996e-12
6.76184e-12
4.96663e-12
3.66091e-12
2.71037e-12
2.01691e-12
1.50981e-12
1.13833e-12
8.65977e-13
6.66049e-13
5.18958e-13
4.10467e-13
3.30139e-13
2.70651e-13
2.26551e-13
1.93818e-13
1.69555e-13
1.51519e-13
1.3845e-13
1.28766e-13
1.22546e-13
1.17789e-13
1.15273e-13
1.13989e-13
1.15109e-13
1.13943e-13
1.19691e-13
1.19257e-13
1.28469e-13
1.29538e-13
1.44266e-13
1.49498e-13
1.78744e-13
1.93686e-13
2.73345e-13
3.11733e-13
5.85802e-13
7.21683e-13
1.47181e-12
2.68609e-12
5.34507e-12
1.43136e-11
3.20971e-11
8.52172e-11
2.19644e-10
5.40559e-10
1.37853e-09
3.59779e-09
0.596086
0.117397
0.00733853
0.00256691
0.00331439
0.00361351
0.00403573
0.00485408
0.00602577
0.00887853
0.0140274
0.0217128
0.0331157
0.0530539
0.0855311
0.129949
0.149729
0.155415
0.156085
0.15299
0.151809
0.156122
0.161354
0.163661
0.167083
0.172046
0.178686
0.186314
0.193883
0.199145
0.202505
0.20433
0.200418
0.188066
0.164064
0.150674
0.144328
0.141776
0.136816
0.124401
0.101973
0.0839572
0.0724834
0.064972
0.0580982
0.0516374
0.0467158
0.0434391
0.0412042
0.0394034
0.0374637
0.0347788
0.0313251
0.0276211
0.0235299
0.0186303
0.013465
0.00915211
0.00610053
0.00403307
0.00268695
0.00183015
0.00128789
0.000939739
0.000708818
0.000548874
0.000433018
0.000345752
0.000278035
0.000224424
0.000181461
0.000146813
0.000118724
9.58994e-05
7.73463e-05
6.22672e-05
5.00202e-05
4.00952e-05
3.2077e-05
2.56146e-05
2.04182e-05
1.62487e-05
1.29097e-05
1.02409e-05
8.11047e-06
6.41135e-06
5.05811e-06
3.98213e-06
3.12831e-06
2.45211e-06
1.91774e-06
1.49639e-06
1.1648e-06
9.04466e-07
7.00633e-07
5.41418e-07
4.17345e-07
3.20921e-07
2.46181e-07
1.88372e-07
1.43774e-07
1.0947e-07
8.31481e-08
6.29962e-08
4.76126e-08
3.59015e-08
2.70081e-08
2.02712e-08
1.51802e-08
1.13428e-08
8.4568e-09
6.2913e-09
4.6703e-09
3.4598e-09
2.55791e-09
1.8874e-09
1.39001e-09
1.0219e-09
7.50068e-10
5.49712e-10
4.02288e-10
2.93991e-10
2.1458e-10
1.56455e-10
1.13977e-10
8.29697e-11
6.03598e-11
4.38937e-11
3.19204e-11
2.3225e-11
1.69132e-11
1.23298e-11
8.99897e-12
6.57798e-12
4.81878e-12
3.5404e-12
2.6104e-12
1.9321e-12
1.43583e-12
1.07192e-12
8.04639e-13
6.08004e-13
4.62919e-13
3.5541e-13
2.75314e-13
2.15318e-13
1.70092e-13
1.35746e-13
1.09525e-13
8.93067e-14
7.37756e-14
6.15348e-14
5.2252e-14
4.43643e-14
3.89423e-14
3.33853e-14
3.04785e-14
2.62705e-14
2.49997e-14
2.19834e-14
2.17057e-14
2.05108e-14
2.20352e-14
2.24208e-14
2.8835e-14
3.26292e-14
6.18239e-14
7.82848e-14
2.11685e-13
3.26346e-13
7.49306e-13
1.84052e-12
4.09189e-12
1.25211e-11
2.82725e-11
7.45036e-11
1.96934e-10
4.6336e-10
1.17281e-09
2.81359e-09