/*--------------------------------*- C++ -*----------------------------------*\
| =========                 |                                                 |
| \\      /  F ield         | OpenFOAM: The Open Source CFD Toolbox           |
|  \\    /   O peration     | Version:  2.1.x                                 |
|   \\  /    A nd           | Web:      www.OpenFOAM.org                      |
|    \\/     M anipulation  |                                                 |
\*---------------------------------------------------------------------------*/
FoamFile
{
    version     2.0;
    format      ascii;
    class       volScalarField;
    location    "0.007";
    object      nuSgs;
}
// * * * * * * * * * * * * * * * * * * * * * * * * * * * * * * * * * * * * * //

dimensions      [0 2 -1 0 0 0 0];

internalField   nonuniform List<scalar> 
12225
(
0.000198699
0.00019497
0.000167271
0.000138859
0.000120567
0.000108896
9.98678e-05
9.33144e-05
8.70319e-05
8.28208e-05
7.82565e-05
7.56807e-05
7.16443e-05
6.96532e-05
6.58786e-05
6.47011e-05
6.18489e-05
6.07e-05
0.00010847
0.000152268
0.000154622
0.000147551
0.000136548
0.00012679
0.000117513
0.000109842
0.000102497
9.65802e-05
9.08668e-05
8.65504e-05
8.19966e-05
7.8285e-05
7.46673e-05
7.13515e-05
6.85381e-05
6.59884e-05
3.20432e-05
7.97005e-05
9.50179e-05
0.000105162
0.000107528
0.000105461
0.000102586
9.86983e-05
9.46392e-05
8.94955e-05
8.50561e-05
7.99416e-05
7.68491e-05
7.27107e-05
7.00553e-05
6.60884e-05
6.33896e-05
6.10168e-05
7.79305e-06
2.99172e-05
4.46804e-05
5.42947e-05
6.1766e-05
6.4656e-05
6.53728e-05
6.54554e-05
6.52819e-05
6.39075e-05
6.23467e-05
6.00672e-05
5.82695e-05
5.63471e-05
5.45147e-05
5.1978e-05
4.93156e-05
4.77972e-05
1.74417e-06
8.64347e-06
1.57541e-05
1.96172e-05
2.56002e-05
2.97826e-05
3.18941e-05
3.364e-05
3.51894e-05
3.61291e-05
3.60936e-05
3.53073e-05
3.44389e-05
3.37219e-05
3.3007e-05
3.2007e-05
2.99522e-05
2.91058e-05
4.83318e-07
2.13001e-06
4.3679e-06
5.82316e-06
8.04827e-06
1.07508e-05
1.2584e-05
1.34907e-05
1.43565e-05
1.57249e-05
1.64139e-05
1.62387e-05
1.60561e-05
1.63867e-05
1.64567e-05
1.6027e-05
1.51639e-05
1.48084e-05
4.10525e-07
6.56079e-07
1.15255e-06
1.60627e-06
2.25449e-06
3.34762e-06
4.39258e-06
4.85984e-06
5.12481e-06
5.47373e-06
5.56678e-06
5.55893e-06
5.76196e-06
6.55638e-06
6.87511e-06
6.78134e-06
6.56069e-06
6.38379e-06
4.13764e-07
4.24912e-07
4.5907e-07
5.34122e-07
6.68404e-07
9.54889e-07
1.29528e-06
1.45841e-06
1.49682e-06
1.48547e-06
1.45833e-06
1.45056e-06
1.54995e-06
1.97949e-06
2.30948e-06
2.35505e-06
2.29045e-06
2.15909e-06
4.1059e-07
4.18896e-07
4.55107e-07
4.63643e-07
4.8119e-07
5.32823e-07
6.68049e-07
7.68304e-07
7.84691e-07
7.66736e-07
7.33176e-07
7.04254e-07
6.9261e-07
7.31028e-07
8.6371e-07
8.89284e-07
8.62173e-07
8.49685e-07
4.24317e-07
4.5289e-07
4.68227e-07
4.63649e-07
4.56247e-07
4.57586e-07
4.96204e-07
5.52794e-07
5.73354e-07
5.6829e-07
5.55258e-07
5.39304e-07
5.29313e-07
5.35494e-07
5.45282e-07
5.35367e-07
5.11782e-07
4.98667e-07
5.33155e-07
5.38655e-07
4.94369e-07
4.82022e-07
5.17229e-07
6.1556e-07
6.404e-07
6.27874e-07
5.94658e-07
5.53487e-07
5.29428e-07
5.1444e-07
5.00518e-07
4.89698e-07
4.79986e-07
4.71242e-07
4.60072e-07
4.50972e-07
5.10333e-07
5.03749e-07
5.61129e-07
5.96309e-07
5.8703e-07
5.66309e-07
5.46794e-07
5.37141e-07
5.33962e-07
5.42086e-07
5.80375e-07
6.39187e-07
6.66188e-07
6.68085e-07
6.57873e-07
6.40647e-07
6.19658e-07
5.89483e-07
5.63016e-07
5.87339e-07
6.11342e-07
6.08507e-07
5.93831e-07
5.62721e-07
5.29736e-07
5.12869e-07
5.02439e-07
4.95048e-07
4.92178e-07
4.93625e-07
5.09186e-07
5.338e-07
5.53823e-07
5.68471e-07
5.7489e-07
5.64173e-07
6.08511e-07
5.89597e-07
5.66935e-07
5.55685e-07
5.67976e-07
6.61759e-07
7.12826e-07
7.01058e-07
6.59959e-07
5.9922e-07
5.73013e-07
5.6236e-07
5.57131e-07
5.47455e-07
5.36098e-07
5.31277e-07
5.64142e-07
5.99697e-07
6.36554e-07
6.58521e-07
6.69822e-07
6.48751e-07
6.21148e-07
6.10102e-07
6.1203e-07
6.49039e-07
7.27296e-07
7.64767e-07
7.61217e-07
7.43472e-07
7.14299e-07
6.51975e-07
5.93379e-07
5.50594e-07
5.32775e-07
5.54055e-07
6.93186e-07
7.12815e-07
7.23782e-07
7.02127e-07
6.79458e-07
6.70701e-07
6.87335e-07
7.77292e-07
8.46347e-07
8.55672e-07
8.37127e-07
7.97332e-07
7.06379e-07
6.30448e-07
5.8645e-07
5.63227e-07
5.53064e-07
6.02682e-07
7.34907e-07
7.48304e-07
7.64845e-07
7.58325e-07
7.36456e-07
7.15071e-07
7.16351e-07
7.98003e-07
9.82886e-07
1.04884e-06
1.03802e-06
1.00049e-06
8.9964e-07
7.84763e-07
7.05794e-07
6.51012e-07
6.26158e-07
6.40034e-07
7.80231e-07
7.61643e-07
7.47749e-07
7.73848e-07
8.30536e-07
8.15788e-07
7.85878e-07
7.74836e-07
7.91146e-07
7.89214e-07
7.74948e-07
7.62945e-07
7.64211e-07
7.60186e-07
7.44739e-07
7.29929e-07
7.3589e-07
7.12459e-07
7.04602e-07
7.02578e-07
6.96107e-07
7.12323e-07
7.285e-07
7.1557e-07
6.89686e-07
6.75248e-07
6.8507e-07
6.9604e-07
6.87471e-07
6.8101e-07
7.02879e-07
8.0866e-07
8.90641e-07
9.13753e-07
9.04312e-07
8.68952e-07
6.8025e-07
7.00817e-07
7.06768e-07
6.83544e-07
6.58968e-07
6.49829e-07
6.64956e-07
6.88697e-07
6.79909e-07
6.59701e-07
6.43809e-07
6.37275e-07
6.5048e-07
6.7948e-07
6.98903e-07
7.04338e-07
7.0319e-07
7.21571e-07
6.26503e-07
6.84167e-07
7.22403e-07
7.17629e-07
6.97056e-07
6.55976e-07
6.13802e-07
5.90573e-07
5.77872e-07
5.70432e-07
5.78048e-07
6.15762e-07
6.51272e-07
6.68977e-07
6.69413e-07
6.60674e-07
6.50459e-07
6.36157e-07
6.00221e-07
5.94476e-07
5.91405e-07
6.36628e-07
6.936e-07
7.29778e-07
7.72539e-07
8.06521e-07
8.19307e-07
8.10712e-07
7.92381e-07
7.61369e-07
6.96208e-07
6.42462e-07
6.15903e-07
6.02925e-07
5.94634e-07
5.93855e-07
5.47211e-07
5.64913e-07
5.59795e-07
5.58736e-07
5.71789e-07
6.16546e-07
7.67203e-07
9.8463e-07
1.06005e-06
1.05345e-06
1.01814e-06
9.53236e-07
9.20126e-07
9.05859e-07
9.21889e-07
9.8635e-07
1.10459e-06
1.13681e-06
5.8568e-07
5.92539e-07
5.90294e-07
6.4221e-07
7.76761e-07
1.00987e-06
1.41504e-06
2.1982e-06
2.69251e-06
2.83435e-06
2.83664e-06
2.82269e-06
2.84391e-06
2.94835e-06
3.32559e-06
3.6743e-06
3.90968e-06
3.89924e-06
4.82382e-07
7.02803e-07
1.23101e-06
1.9222e-06
2.61847e-06
3.6133e-06
5.22685e-06
7.73782e-06
9.10173e-06
9.52892e-06
9.53709e-06
9.47737e-06
9.51147e-06
9.7699e-06
1.05109e-05
1.1056e-05
1.14639e-05
1.14745e-05
5.30591e-07
2.46524e-06
5.71995e-06
9.17843e-06
1.14891e-05
1.4592e-05
1.94933e-05
2.33263e-05
2.5147e-05
2.55491e-05
2.53488e-05
2.51425e-05
2.52337e-05
2.57208e-05
2.61345e-05
2.64395e-05
2.64072e-05
2.62355e-05
1.80652e-06
1.17734e-05
2.54754e-05
3.44685e-05
4.0278e-05
4.69949e-05
5.21634e-05
5.47657e-05
5.52896e-05
5.45793e-05
5.3657e-05
5.28553e-05
5.21673e-05
5.16055e-05
5.07273e-05
4.96855e-05
4.85867e-05
4.74003e-05
1.26859e-05
4.68864e-05
7.93905e-05
9.05526e-05
9.72207e-05
0.00010239
0.000103207
0.00010107
9.83209e-05
9.46076e-05
9.09561e-05
8.77152e-05
8.4594e-05
8.17586e-05
7.86948e-05
7.60554e-05
7.29971e-05
7.06674e-05
6.57535e-05
0.000145271
0.000166377
0.000165172
0.000159649
0.000151319
0.000142151
0.000133473
0.000125515
0.000118222
0.000111541
0.000105362
9.96332e-05
9.43551e-05
8.93677e-05
8.50041e-05
8.04545e-05
7.71397e-05
0.00020654
0.000241022
0.000221782
0.000188582
0.000163019
0.000144082
0.000129782
0.000118899
0.000110103
0.000102663
9.59419e-05
8.98727e-05
8.42198e-05
7.91402e-05
7.4382e-05
7.0152e-05
6.59633e-05
6.24104e-05
1.69485e-06
2.62919e-06
3.52814e-06
4.8065e-06
6.36944e-06
8.14652e-06
1.00667e-05
1.20701e-05
1.41066e-05
1.61405e-05
1.81422e-05
2.00914e-05
2.19688e-05
2.37612e-05
2.54553e-05
2.70369e-05
2.84887e-05
2.97918e-05
3.0935e-05
3.19166e-05
3.27213e-05
3.33089e-05
3.36942e-05
3.39191e-05
3.39074e-05
3.36918e-05
3.32423e-05
3.25996e-05
3.17434e-05
3.07461e-05
2.96503e-05
2.84887e-05
2.7288e-05
2.60813e-05
2.49009e-05
2.37773e-05
2.27415e-05
2.18209e-05
2.10398e-05
2.04245e-05
1.99952e-05
1.9784e-05
1.97442e-05
1.99392e-05
2.03617e-05
2.10033e-05
2.18646e-05
2.29355e-05
2.42072e-05
2.56653e-05
2.72929e-05
2.90718e-05
3.09829e-05
3.30059e-05
3.51199e-05
3.73043e-05
3.95389e-05
4.18048e-05
4.40838e-05
4.63587e-05
4.86143e-05
5.08369e-05
5.30152e-05
5.5139e-05
5.71998e-05
5.91915e-05
6.11091e-05
6.29495e-05
6.47111e-05
6.63922e-05
6.79941e-05
6.9519e-05
7.09664e-05
7.23393e-05
7.3647e-05
7.48901e-05
7.60514e-05
7.7133e-05
7.81566e-05
7.91314e-05
8.00627e-05
8.09538e-05
8.18081e-05
8.26284e-05
8.34173e-05
8.41766e-05
8.49093e-05
8.56182e-05
8.63037e-05
8.69669e-05
8.761e-05
8.82347e-05
8.88428e-05
8.94358e-05
9.00147e-05
9.05806e-05
9.11345e-05
9.16776e-05
9.22106e-05
9.27343e-05
9.32494e-05
9.37566e-05
9.42566e-05
9.475e-05
9.52372e-05
9.57186e-05
9.61948e-05
9.66662e-05
9.71331e-05
9.7596e-05
9.80553e-05
9.85115e-05
9.89643e-05
9.94139e-05
9.98604e-05
0.000100304
0.000100745
0.000101184
0.00010162
0.000102055
0.000102488
0.000102918
0.000103348
0.000103775
0.000104201
0.000104626
0.000105049
0.000105471
0.000105891
0.000106311
0.000106729
0.000107146
0.000107562
0.000107977
0.000108391
0.000108804
0.000109216
0.000109627
0.000110037
0.000110446
0.000110853
0.00011126
0.000111666
0.00011207
0.000112474
0.000112876
0.000113277
0.000113676
0.000114075
0.000114472
0.000114868
0.000115262
0.000115654
0.000116045
0.000116433
0.00011682
0.000117203
0.000117585
0.000117961
0.000118338
0.0001187
0.00011908
0.000119405
0.000119821
0.000120043
0.000120536
0.000120599
0.000121226
0.000121036
0.000121831
0.000121366
0.00012218
0.000121572
0.000122112
0.000121498
0.000121493
0.000120917
0.000119023
0.00011891
0.000113075
3.91657e-06
2.56749e-06
2.86936e-06
3.61236e-06
4.48548e-06
5.44454e-06
6.4402e-06
7.42279e-06
8.35183e-06
9.20022e-06
9.94808e-06
1.05818e-05
1.10873e-05
1.1461e-05
1.1692e-05
1.18022e-05
1.17801e-05
1.16137e-05
1.13081e-05
1.08862e-05
1.03576e-05
9.71824e-06
9.00437e-06
8.24174e-06
7.44579e-06
6.69074e-06
6.06042e-06
5.67494e-06
5.50042e-06
5.5281e-06
5.57392e-06
5.63475e-06
5.70705e-06
5.78577e-06
5.86817e-06
5.95157e-06
6.03442e-06
6.11442e-06
6.19315e-06
6.27218e-06
6.35703e-06
6.44956e-06
6.55218e-06
6.67087e-06
6.81108e-06
6.97675e-06
7.17244e-06
7.40303e-06
7.67401e-06
7.9872e-06
8.34591e-06
8.75306e-06
9.20939e-06
9.71477e-06
1.02694e-05
1.08729e-05
1.15245e-05
1.22222e-05
1.29659e-05
1.37499e-05
1.4577e-05
1.54384e-05
1.63336e-05
1.72641e-05
1.8212e-05
1.91945e-05
2.01902e-05
2.11985e-05
2.22334e-05
2.32621e-05
2.43004e-05
2.53575e-05
2.63902e-05
2.74281e-05
2.84858e-05
2.95002e-05
3.05071e-05
3.15551e-05
3.26239e-05
3.36963e-05
3.47596e-05
3.58097e-05
3.68382e-05
3.78448e-05
3.88294e-05
3.97863e-05
4.07215e-05
4.16331e-05
4.25164e-05
4.33736e-05
4.42072e-05
4.50193e-05
4.58119e-05
4.6586e-05
4.73434e-05
4.80864e-05
4.88156e-05
4.95319e-05
5.02369e-05
5.09317e-05
5.16169e-05
5.22934e-05
5.29617e-05
5.36227e-05
5.42772e-05
5.49257e-05
5.55689e-05
5.62071e-05
5.6841e-05
5.74713e-05
5.80982e-05
5.87222e-05
5.93436e-05
5.99629e-05
6.05803e-05
6.11964e-05
6.18114e-05
6.24255e-05
6.30388e-05
6.36519e-05
6.42648e-05
6.48779e-05
6.54914e-05
6.61054e-05
6.67201e-05
6.73356e-05
6.79523e-05
6.85703e-05
6.91896e-05
6.98103e-05
7.04327e-05
7.10569e-05
7.16829e-05
7.23109e-05
7.29409e-05
7.35729e-05
7.4207e-05
7.48435e-05
7.54822e-05
7.61233e-05
7.67666e-05
7.74123e-05
7.80603e-05
7.87108e-05
7.93638e-05
8.00193e-05
8.06772e-05
8.13374e-05
8.20001e-05
8.26652e-05
8.33328e-05
8.40028e-05
8.46753e-05
8.53501e-05
8.60273e-05
8.67068e-05
8.73886e-05
8.8073e-05
8.87588e-05
8.94496e-05
9.01365e-05
9.08388e-05
9.15185e-05
9.22453e-05
9.29017e-05
9.36673e-05
9.42982e-05
9.50823e-05
9.57403e-05
9.64597e-05
9.72542e-05
9.78303e-05
9.88144e-05
9.92899e-05
0.000100435
0.00010079
0.00010218
0.000102418
0.000103574
0.000106232
7.17775e-06
2.69553e-06
2.44571e-06
2.72615e-06
3.08486e-06
3.48707e-06
3.88252e-06
4.23587e-06
4.53606e-06
4.76717e-06
4.90314e-06
4.96614e-06
4.97735e-06
4.89956e-06
4.77496e-06
4.60706e-06
4.39879e-06
4.18043e-06
3.96205e-06
3.76481e-06
3.60818e-06
3.50039e-06
3.44932e-06
3.43692e-06
3.49183e-06
3.59718e-06
3.74338e-06
3.92034e-06
4.12172e-06
4.31946e-06
4.5077e-06
4.67972e-06
4.82969e-06
4.95274e-06
5.04854e-06
5.10578e-06
5.13707e-06
5.13934e-06
5.10814e-06
5.0504e-06
4.97183e-06
4.87453e-06
4.76234e-06
4.63801e-06
4.50674e-06
4.3709e-06
4.23116e-06
4.09158e-06
3.9529e-06
3.81461e-06
3.67691e-06
3.53978e-06
3.40926e-06
3.29229e-06
3.19098e-06
3.10749e-06
3.04396e-06
3.00233e-06
2.9841e-06
2.98749e-06
3.01816e-06
3.07561e-06
3.15687e-06
3.26438e-06
3.39246e-06
3.54586e-06
3.72144e-06
3.90944e-06
4.12796e-06
4.35033e-06
4.59741e-06
4.85537e-06
5.12739e-06
5.40971e-06
5.70489e-06
6.01409e-06
6.32014e-06
6.64697e-06
6.97767e-06
7.31786e-06
7.67802e-06
8.03104e-06
8.40359e-06
8.78119e-06
9.15058e-06
9.5437e-06
9.92501e-06
1.03064e-05
1.07136e-05
1.11395e-05
1.15779e-05
1.20267e-05
1.24815e-05
1.29372e-05
1.3395e-05
1.38516e-05
1.43037e-05
1.47505e-05
1.51916e-05
1.56271e-05
1.60572e-05
1.64817e-05
1.69007e-05
1.73145e-05
1.77232e-05
1.81274e-05
1.85271e-05
1.89228e-05
1.93148e-05
1.97036e-05
2.00895e-05
2.04729e-05
2.0854e-05
2.12332e-05
2.1611e-05
2.19878e-05
2.23639e-05
2.27395e-05
2.3115e-05
2.34906e-05
2.38667e-05
2.42437e-05
2.46218e-05
2.50011e-05
2.53821e-05
2.57649e-05
2.61499e-05
2.65373e-05
2.69274e-05
2.73203e-05
2.77162e-05
2.81154e-05
2.85181e-05
2.89245e-05
2.93347e-05
2.97489e-05
3.01672e-05
3.05899e-05
3.10171e-05
3.1449e-05
3.18856e-05
3.23272e-05
3.27737e-05
3.32254e-05
3.36825e-05
3.4145e-05
3.46131e-05
3.50868e-05
3.55663e-05
3.60516e-05
3.65429e-05
3.70404e-05
3.75444e-05
3.80543e-05
3.85719e-05
3.90938e-05
3.96276e-05
4.01585e-05
4.07164e-05
4.1245e-05
4.18488e-05
4.23457e-05
4.30379e-05
4.34635e-05
4.42661e-05
4.46668e-05
4.55325e-05
4.59089e-05
4.68926e-05
4.72343e-05
4.83225e-05
4.86623e-05
4.9848e-05
5.02491e-05
5.16382e-05
5.21202e-05
5.38405e-05
5.46062e-05
5.62279e-05
6.24377e-05
1.14418e-05
3.24087e-06
2.45837e-06
2.44668e-06
2.57979e-06
2.68856e-06
2.81082e-06
2.96217e-06
3.05029e-06
3.09637e-06
3.11851e-06
3.12392e-06
3.11837e-06
3.11858e-06
3.12619e-06
3.15254e-06
3.19727e-06
3.27144e-06
3.37041e-06
3.49782e-06
3.64427e-06
3.83687e-06
4.07928e-06
4.36346e-06
4.67835e-06
5.0136e-06
5.35987e-06
5.70812e-06
6.05077e-06
6.37212e-06
6.65851e-06
6.89907e-06
7.0834e-06
7.19821e-06
7.25753e-06
7.26229e-06
7.19212e-06
7.06442e-06
6.89004e-06
6.66726e-06
6.41529e-06
6.13853e-06
5.84818e-06
5.55129e-06
5.26004e-06
4.97741e-06
4.7043e-06
4.44484e-06
4.19874e-06
3.96569e-06
3.74586e-06
3.53957e-06
3.34408e-06
3.15651e-06
2.97656e-06
2.8041e-06
2.63912e-06
2.48157e-06
2.33158e-06
2.18932e-06
2.05485e-06
1.92774e-06
1.80746e-06
1.69293e-06
1.58347e-06
1.48109e-06
1.38743e-06
1.30195e-06
1.22646e-06
1.15915e-06
1.10293e-06
1.05617e-06
1.02028e-06
9.94342e-07
9.79275e-07
9.74417e-07
9.77982e-07
9.92115e-07
1.01228e-06
1.04152e-06
1.07645e-06
1.11657e-06
1.16429e-06
1.21304e-06
1.26921e-06
1.32841e-06
1.38721e-06
1.45567e-06
1.52145e-06
1.58847e-06
1.66895e-06
1.74386e-06
1.82161e-06
1.91498e-06
1.99853e-06
2.0862e-06
2.19378e-06
2.31709e-06
2.4528e-06
2.59817e-06
2.74984e-06
2.90531e-06
3.06276e-06
3.22084e-06
3.37865e-06
3.5355e-06
3.69094e-06
3.84464e-06
3.99648e-06
4.14642e-06
4.29448e-06
4.44069e-06
4.58512e-06
4.72789e-06
4.86915e-06
5.0091e-06
5.14788e-06
5.28562e-06
5.42243e-06
5.55849e-06
5.694e-06
5.82913e-06
5.96403e-06
6.09883e-06
6.23369e-06
6.36879e-06
6.50432e-06
6.64045e-06
6.77734e-06
6.91511e-06
7.05389e-06
7.19381e-06
7.33506e-06
7.47779e-06
7.62215e-06
7.76822e-06
7.91612e-06
8.066e-06
8.21801e-06
8.37229e-06
8.52895e-06
8.68808e-06
8.84981e-06
9.01424e-06
9.18155e-06
9.35187e-06
9.52531e-06
9.70196e-06
9.88194e-06
1.00654e-05
1.02525e-05
1.04432e-05
1.06383e-05
1.08365e-05
1.10414e-05
1.12456e-05
1.14648e-05
1.16692e-05
1.19152e-05
1.21037e-05
1.24011e-05
1.25522e-05
1.29123e-05
1.30549e-05
1.34466e-05
1.35846e-05
1.40542e-05
1.41646e-05
1.47416e-05
1.48157e-05
1.55012e-05
1.5587e-05
1.63461e-05
1.65182e-05
1.74406e-05
1.77316e-05
1.89873e-05
1.95677e-05
2.08024e-05
2.5407e-05
1.84361e-05
4.26457e-06
2.38045e-06
2.42608e-06
2.49173e-06
2.64327e-06
2.71646e-06
2.70479e-06
2.73682e-06
2.79672e-06
2.85191e-06
2.92879e-06
3.0101e-06
3.09976e-06
3.21519e-06
3.37586e-06
3.58893e-06
3.85997e-06
4.1972e-06
4.59399e-06
5.05787e-06
5.56421e-06
6.10222e-06
6.6588e-06
7.22997e-06
7.80654e-06
8.38367e-06
8.95285e-06
9.50581e-06
1.00038e-05
1.04182e-05
1.07444e-05
1.09516e-05
1.10557e-05
1.10623e-05
1.09503e-05
1.07554e-05
1.04374e-05
1.00746e-05
9.6183e-06
9.11156e-06
8.56237e-06
7.99501e-06
7.42637e-06
6.87731e-06
6.36259e-06
5.88801e-06
5.4556e-06
5.06261e-06
4.70385e-06
4.37554e-06
4.07391e-06
3.79553e-06
3.53734e-06
3.29686e-06
3.07213e-06
2.86154e-06
2.66372e-06
2.47751e-06
2.30204e-06
2.13684e-06
1.9818e-06
1.83703e-06
1.70257e-06
1.57792e-06
1.46155e-06
1.35247e-06
1.25013e-06
1.15422e-06
1.06434e-06
9.80318e-07
9.01826e-07
8.28601e-07
7.60398e-07
6.9713e-07
6.38625e-07
5.84573e-07
5.34508e-07
4.88271e-07
4.46134e-07
4.07741e-07
3.73195e-07
3.42634e-07
3.15385e-07
2.9205e-07
2.72474e-07
2.55831e-07
2.4309e-07
2.33814e-07
2.26797e-07
2.22956e-07
2.22525e-07
2.23064e-07
2.2589e-07
2.32136e-07
2.38105e-07
2.43921e-07
2.55303e-07
2.67757e-07
2.78088e-07
2.95018e-07
3.19253e-07
3.4886e-07
3.8206e-07
4.17598e-07
4.54556e-07
4.92293e-07
5.30374e-07
5.68511e-07
6.06517e-07
6.44267e-07
6.8168e-07
7.18701e-07
7.55301e-07
7.91467e-07
8.27207e-07
8.62527e-07
8.97439e-07
9.31957e-07
9.66105e-07
9.99918e-07
1.03343e-06
1.06667e-06
1.09966e-06
1.13246e-06
1.16512e-06
1.19767e-06
1.23017e-06
1.26267e-06
1.29518e-06
1.32776e-06
1.36045e-06
1.3933e-06
1.42637e-06
1.4597e-06
1.49332e-06
1.52727e-06
1.56159e-06
1.59634e-06
1.63156e-06
1.66731e-06
1.7036e-06
1.74049e-06
1.77801e-06
1.81622e-06
1.85517e-06
1.8949e-06
1.93544e-06
1.97686e-06
2.01918e-06
2.06253e-06
2.10679e-06
2.15248e-06
2.19861e-06
2.24759e-06
2.2946e-06
2.34961e-06
2.39387e-06
2.46182e-06
2.49538e-06
2.58475e-06
2.60974e-06
2.7108e-06
2.73745e-06
2.85786e-06
2.87736e-06
3.03123e-06
3.03797e-06
3.2366e-06
3.23289e-06
3.48417e-06
3.48957e-06
3.77616e-06
3.83498e-06
4.19177e-06
4.32782e-06
4.85086e-06
5.1691e-06
5.74494e-06
8.06121e-06
2.26457e-05
5.64886e-06
2.75681e-06
2.55625e-06
2.55372e-06
2.50735e-06
2.50204e-06
2.67576e-06
2.78008e-06
2.86733e-06
2.97427e-06
3.10359e-06
3.28826e-06
3.54501e-06
3.88193e-06
4.30139e-06
4.81165e-06
5.41666e-06
6.10475e-06
6.86791e-06
7.68394e-06
8.54226e-06
9.41783e-06
1.03144e-05
1.12148e-05
1.21202e-05
1.30171e-05
1.38819e-05
1.46857e-05
1.53666e-05
1.58918e-05
1.62347e-05
1.64241e-05
1.65139e-05
1.63605e-05
1.60731e-05
1.57622e-05
1.52056e-05
1.46614e-05
1.39561e-05
1.31764e-05
1.2318e-05
1.13935e-05
1.04335e-05
9.47786e-06
8.56567e-06
7.72641e-06
6.97597e-06
6.31291e-06
5.73015e-06
5.21904e-06
4.76999e-06
4.37346e-06
4.02066e-06
3.70396e-06
3.41719e-06
3.15563e-06
2.91581e-06
2.69511e-06
2.49142e-06
2.30288e-06
2.12786e-06
1.96502e-06
1.81337e-06
1.6722e-06
1.54091e-06
1.41884e-06
1.30537e-06
1.19992e-06
1.10194e-06
1.01089e-06
9.26318e-07
8.47833e-07
7.75053e-07
7.07557e-07
6.44968e-07
5.87072e-07
5.33737e-07
4.84661e-07
4.39509e-07
3.97992e-07
3.59862e-07
3.24907e-07
2.92902e-07
2.63654e-07
2.36987e-07
2.12709e-07
1.90671e-07
1.70705e-07
1.52624e-07
1.36343e-07
1.21733e-07
1.08606e-07
9.69408e-08
8.66334e-08
7.74943e-08
6.95471e-08
6.27196e-08
5.687e-08
5.21623e-08
4.83362e-08
4.52737e-08
4.39032e-08
4.39264e-08
4.57588e-08
4.95768e-08
5.45716e-08
6.03799e-08
6.67318e-08
7.34401e-08
8.03774e-08
8.74577e-08
9.46191e-08
1.01818e-07
1.09023e-07
1.16211e-07
1.23367e-07
1.30477e-07
1.37532e-07
1.44525e-07
1.51452e-07
1.58312e-07
1.65105e-07
1.71832e-07
1.78498e-07
1.85109e-07
1.91672e-07
1.98192e-07
2.04676e-07
2.11129e-07
2.17559e-07
2.23975e-07
2.30387e-07
2.36807e-07
2.43244e-07
2.49703e-07
2.56193e-07
2.62722e-07
2.69303e-07
2.75946e-07
2.82663e-07
2.89461e-07
2.96351e-07
3.03339e-07
3.10436e-07
3.17655e-07
3.25005e-07
3.32498e-07
3.40148e-07
3.47957e-07
3.55967e-07
3.64118e-07
3.72603e-07
3.81039e-07
3.90313e-07
3.9866e-07
4.09638e-07
4.1667e-07
4.31398e-07
4.353e-07
4.54666e-07
4.58216e-07
4.79113e-07
4.82624e-07
5.09292e-07
5.11099e-07
5.45502e-07
5.45157e-07
5.91232e-07
5.8986e-07
6.49018e-07
6.53222e-07
7.20435e-07
7.43543e-07
8.34498e-07
8.84751e-07
1.02235e-06
1.15821e-06
1.34228e-06
2.19247e-06
3.27234e-05
8.34797e-06
2.7976e-06
2.42236e-06
2.48743e-06
2.70961e-06
2.96136e-06
2.9635e-06
2.90886e-06
3.05575e-06
3.29517e-06
3.61861e-06
4.03947e-06
4.57442e-06
5.19117e-06
5.9681e-06
6.87436e-06
7.89581e-06
9.02063e-06
1.02209e-05
1.14848e-05
1.28051e-05
1.42107e-05
1.54622e-05
1.66489e-05
1.78562e-05
1.90117e-05
2.01282e-05
2.11373e-05
2.18673e-05
2.23336e-05
2.26062e-05
2.27345e-05
2.25572e-05
2.21551e-05
2.15855e-05
2.11177e-05
2.03288e-05
1.96471e-05
1.88005e-05
1.79118e-05
1.69477e-05
1.58412e-05
1.45999e-05
1.327e-05
1.19271e-05
1.0613e-05
9.41086e-06
8.34136e-06
7.40092e-06
6.5813e-06
5.87234e-06
5.26231e-06
4.73806e-06
4.28583e-06
3.8925e-06
3.54671e-06
3.23935e-06
2.96348e-06
2.71402e-06
2.48729e-06
2.28052e-06
2.09153e-06
1.91845e-06
1.75967e-06
1.61378e-06
1.47957e-06
1.35597e-06
1.24207e-06
1.13704e-06
1.04013e-06
9.50699e-07
8.6815e-07
7.91971e-07
7.21703e-07
6.56921e-07
5.97222e-07
5.42249e-07
4.91676e-07
4.45203e-07
4.02553e-07
3.63464e-07
3.27693e-07
2.9501e-07
2.65192e-07
2.3803e-07
2.13325e-07
1.90896e-07
1.70575e-07
1.52193e-07
1.35591e-07
1.20622e-07
1.07146e-07
9.50367e-08
8.41751e-08
7.44477e-08
6.57514e-08
5.79894e-08
5.10759e-08
4.49306e-08
3.94748e-08
3.46464e-08
3.03848e-08
2.66257e-08
2.33318e-08
2.05154e-08
1.81417e-08
1.62279e-08
1.48082e-08
1.37909e-08
1.33087e-08
1.32495e-08
1.34676e-08
1.40316e-08
1.48075e-08
1.57359e-08
1.67702e-08
1.78761e-08
1.90289e-08
2.02111e-08
2.14108e-08
2.26194e-08
2.38309e-08
2.50413e-08
2.62479e-08
2.74493e-08
2.86444e-08
2.98328e-08
3.10143e-08
3.21889e-08
3.33571e-08
3.45199e-08
3.56787e-08
3.68351e-08
3.79907e-08
3.91457e-08
4.03016e-08
4.14598e-08
4.26226e-08
4.37921e-08
4.49705e-08
4.61592e-08
4.73601e-08
4.85741e-08
4.98029e-08
5.10492e-08
5.23152e-08
5.36037e-08
5.49172e-08
5.62556e-08
5.76291e-08
5.90192e-08
6.04786e-08
6.19024e-08
6.35275e-08
6.4883e-08
6.69017e-08
6.78957e-08
7.07176e-08
7.12168e-08
7.46217e-08
7.52178e-08
7.90641e-08
7.95553e-08
8.44789e-08
8.47868e-08
9.12197e-08
9.13225e-08
9.99511e-08
1.0033e-07
1.11063e-07
1.13528e-07
1.26441e-07
1.33419e-07
1.52071e-07
1.67325e-07
1.95714e-07
2.3701e-07
2.88386e-07
5.46049e-07
3.70289e-05
1.03919e-05
2.96163e-06
2.7588e-06
2.97691e-06
3.17395e-06
3.11414e-06
3.15162e-06
3.39091e-06
3.89569e-06
4.27562e-06
4.70654e-06
5.2498e-06
6.02057e-06
7.10326e-06
8.37797e-06
9.87028e-06
1.13392e-05
1.2929e-05
1.48236e-05
1.69325e-05
1.85931e-05
1.98438e-05
2.13086e-05
2.26745e-05
2.4102e-05
2.55999e-05
2.69138e-05
2.77934e-05
2.83391e-05
2.86573e-05
2.88225e-05
2.86466e-05
2.82311e-05
2.74288e-05
2.63593e-05
2.54112e-05
2.43097e-05
2.33318e-05
2.23474e-05
2.14187e-05
2.04205e-05
1.94487e-05
1.84399e-05
1.73138e-05
1.59586e-05
1.43608e-05
1.26863e-05
1.11912e-05
9.83655e-06
8.62838e-06
7.55861e-06
6.62449e-06
5.82176e-06
5.14116e-06
4.56777e-06
4.08383e-06
3.67178e-06
3.31637e-06
3.00552e-06
2.73024e-06
2.48409e-06
2.26245e-06
2.06194e-06
1.87996e-06
1.71441e-06
1.56356e-06
1.42593e-06
1.30022e-06
1.18526e-06
1.08004e-06
9.83645e-07
8.95305e-07
8.14314e-07
7.40036e-07
6.71912e-07
6.09451e-07
5.52208e-07
4.99775e-07
4.51779e-07
4.07881e-07
3.67774e-07
3.31175e-07
2.97815e-07
2.67444e-07
2.3983e-07
2.14763e-07
1.92042e-07
1.71477e-07
1.52893e-07
1.36126e-07
1.21022e-07
1.07439e-07
9.52457e-08
8.43137e-08
7.45282e-08
6.57869e-08
5.79921e-08
5.10511e-08
4.48791e-08
3.93992e-08
3.45426e-08
3.02457e-08
2.64502e-08
2.31019e-08
2.01528e-08
1.75588e-08
1.52821e-08
1.32887e-08
1.1547e-08
1.0032e-08
8.71937e-09
7.58935e-09
6.62637e-09
5.81773e-09
5.15251e-09
4.62269e-09
4.21885e-09
3.93359e-09
3.75327e-09
3.66483e-09
3.65238e-09
3.69892e-09
3.78985e-09
3.91323e-09
4.05963e-09
4.22195e-09
4.39508e-09
4.57549e-09
4.76071e-09
4.94904e-09
5.13938e-09
5.33102e-09
5.52356e-09
5.71679e-09
5.91044e-09
6.1045e-09
6.29903e-09
6.49426e-09
6.69043e-09
6.88786e-09
7.08677e-09
7.28741e-09
7.4898e-09
7.69425e-09
7.90123e-09
8.11109e-09
8.32444e-09
8.54174e-09
8.76276e-09
8.98974e-09
9.21824e-09
9.46014e-09
9.69158e-09
9.96577e-09
1.01774e-08
1.05314e-08
1.06663e-08
1.11649e-08
1.12397e-08
1.1799e-08
1.19011e-08
1.25606e-08
1.26478e-08
1.3474e-08
1.35618e-08
1.46498e-08
1.4754e-08
1.61954e-08
1.64643e-08
1.82921e-08
1.90299e-08
2.13565e-08
2.32641e-08
2.62659e-08
3.12298e-08
3.65734e-08
4.65612e-08
6.02663e-08
1.30914e-07
4.25812e-05
1.25944e-05
3.89268e-06
3.24279e-06
3.15744e-06
3.08174e-06
3.07754e-06
3.40729e-06
3.80734e-06
4.33495e-06
4.92209e-06
5.69947e-06
6.94679e-06
8.56776e-06
1.01358e-05
1.16266e-05
1.33414e-05
1.57361e-05
1.84661e-05
2.10688e-05
2.23878e-05
2.40188e-05
2.5474e-05
2.69008e-05
2.84977e-05
2.96702e-05
3.02563e-05
3.06227e-05
3.08594e-05
3.1031e-05
3.11931e-05
3.13311e-05
3.14179e-05
3.14322e-05
3.1254e-05
3.06199e-05
2.92424e-05
2.74748e-05
2.56535e-05
2.41542e-05
2.2967e-05
2.1846e-05
2.08327e-05
1.98968e-05
1.90163e-05
1.81959e-05
1.73401e-05
1.61569e-05
1.45432e-05
1.28621e-05
1.13516e-05
9.94377e-06
8.64686e-06
7.47548e-06
6.45031e-06
5.57949e-06
4.85531e-06
4.25948e-06
3.76868e-06
3.35991e-06
3.01366e-06
2.71506e-06
2.45345e-06
2.22142e-06
2.01382e-06
1.82697e-06
1.65819e-06
1.50535e-06
1.3667e-06
1.24074e-06
1.12618e-06
1.02192e-06
9.26963e-07
8.40433e-07
7.61539e-07
6.8958e-07
6.23943e-07
5.64068e-07
5.09458e-07
4.59663e-07
4.14284e-07
3.72964e-07
3.35368e-07
3.0119e-07
2.70149e-07
2.41989e-07
2.16477e-07
1.93398e-07
1.72543e-07
1.53726e-07
1.36772e-07
1.21518e-07
1.07817e-07
9.55279e-08
8.45213e-08
7.46804e-08
6.5895e-08
5.8064e-08
5.1095e-08
4.49035e-08
3.94097e-08
3.45425e-08
3.02378e-08
2.64358e-08
2.30822e-08
2.0129e-08
1.75325e-08
1.52526e-08
1.32538e-08
1.15041e-08
9.97431e-09
8.63853e-09
7.47378e-09
6.45976e-09
5.57848e-09
4.81384e-09
4.15156e-09
3.57905e-09
3.08541e-09
2.66107e-09
2.29786e-09
1.98874e-09
1.72768e-09
1.5096e-09
1.33017e-09
1.18562e-09
1.07237e-09
9.8724e-10
9.26492e-10
8.86924e-10
8.64584e-10
8.5597e-10
8.58067e-10
8.68119e-10
8.83983e-10
9.04116e-10
9.27383e-10
9.52912e-10
9.80098e-10
1.00853e-09
1.03795e-09
1.06817e-09
1.09909e-09
1.13057e-09
1.16258e-09
1.19516e-09
1.2283e-09
1.2621e-09
1.29661e-09
1.33173e-09
1.3679e-09
1.40417e-09
1.44296e-09
1.47937e-09
1.52417e-09
1.55618e-09
1.61583e-09
1.63366e-09
1.71706e-09
1.72908e-09
1.81816e-09
1.83539e-09
1.94327e-09
1.96087e-09
2.09333e-09
2.11798e-09
2.29468e-09
2.33371e-09
2.57837e-09
2.65863e-09
3.00142e-09
3.18196e-09
3.58313e-09
4.23875e-09
4.77074e-09
6.08973e-09
7.59477e-09
1.01002e-08
1.4259e-08
3.32592e-08
5.04523e-05
1.59513e-05
4.2143e-06
2.96232e-06
2.99946e-06
3.2238e-06
4.13279e-06
4.83893e-06
5.04991e-06
5.43302e-06
6.25473e-06
7.34274e-06
8.76082e-06
1.05266e-05
1.2689e-05
1.52332e-05
1.85574e-05
2.2875e-05
2.52517e-05
2.67425e-05
2.79606e-05
2.88391e-05
2.96997e-05
3.04133e-05
3.07717e-05
3.09555e-05
3.10278e-05
3.10238e-05
3.11403e-05
3.13227e-05
3.1526e-05
3.16998e-05
3.18589e-05
3.20127e-05
3.21083e-05
3.2056e-05
3.17568e-05
3.08391e-05
2.88882e-05
2.63772e-05
2.47145e-05
2.32393e-05
2.18874e-05
2.06922e-05
1.97011e-05
1.8898e-05
1.82049e-05
1.75855e-05
1.68716e-05
1.57985e-05
1.43449e-05
1.28116e-05
1.13152e-05
9.83739e-06
8.4271e-06
7.15843e-06
6.06599e-06
5.15921e-06
4.42555e-06
3.83875e-06
3.36796e-06
2.98439e-06
2.66481e-06
2.39229e-06
2.15521e-06
1.94579e-06
1.75891e-06
1.59103e-06
1.43959e-06
1.30259e-06
1.17842e-06
1.06578e-06
9.63567e-07
8.70804e-07
7.86621e-07
7.10221e-07
6.40881e-07
5.7793e-07
5.20772e-07
4.68876e-07
4.21771e-07
3.79034e-07
3.40276e-07
3.05144e-07
2.73325e-07
2.44533e-07
2.18511e-07
1.95016e-07
1.73823e-07
1.54732e-07
1.37557e-07
1.22127e-07
1.08286e-07
9.58851e-08
8.47896e-08
7.48793e-08
6.60398e-08
5.81659e-08
5.1163e-08
4.49445e-08
3.94312e-08
3.45499e-08
3.02353e-08
2.64261e-08
2.30675e-08
2.0111e-08
1.75125e-08
1.52315e-08
1.32323e-08
1.14826e-08
9.95301e-09
8.6176e-09
7.45336e-09
6.4398e-09
5.55866e-09
4.79357e-09
4.13002e-09
3.55525e-09
3.058e-09
2.62834e-09
2.2575e-09
1.93779e-09
1.66253e-09
1.42587e-09
1.2227e-09
1.0485e-09
8.99355e-10
7.71911e-10
6.63273e-10
5.70999e-10
4.92919e-10
4.27177e-10
3.72193e-10
3.26615e-10
2.893e-10
2.59268e-10
2.35633e-10
2.17544e-10
2.04206e-10
1.94844e-10
1.88778e-10
1.85405e-10
1.83828e-10
1.84306e-10
1.85722e-10
1.88119e-10
1.9127e-10
1.94995e-10
1.99179e-10
2.03697e-10
2.08595e-10
2.13618e-10
2.1924e-10
2.24424e-10
2.31278e-10
2.35687e-10
2.45233e-10
2.47359e-10
2.60532e-10
2.62446e-10
2.76266e-10
2.7915e-10
2.96194e-10
3.0016e-10
3.21848e-10
3.28957e-10
3.61889e-10
3.74495e-10
4.30349e-10
4.51566e-10
5.48732e-10
6.0092e-10
7.19141e-10
9.73968e-10
1.20101e-09
1.8119e-09
2.56029e-09
3.83723e-09
6.09733e-09
1.20907e-08
5.43638e-05
2.19155e-05
5.18801e-06
2.99802e-06
3.18805e-06
3.61039e-06
4.53932e-06
5.08038e-06
5.39111e-06
6.41305e-06
8.21617e-06
1.01411e-05
1.20687e-05
1.42148e-05
1.69694e-05
2.09175e-05
2.54824e-05
2.75391e-05
2.87812e-05
2.94539e-05
2.97796e-05
2.99696e-05
3.04787e-05
3.07589e-05
3.09026e-05
3.09108e-05
3.0895e-05
3.10051e-05
3.12709e-05
3.17537e-05
3.20427e-05
3.21992e-05
3.21716e-05
3.211e-05
3.19179e-05
3.19147e-05
3.18956e-05
3.15979e-05
3.06353e-05
2.86188e-05
2.61506e-05
2.41598e-05
2.27028e-05
2.14809e-05
2.03185e-05
1.92861e-05
1.84879e-05
1.79162e-05
1.74706e-05
1.70056e-05
1.63411e-05
1.53941e-05
1.4183e-05
1.27542e-05
1.11062e-05
9.44654e-06
7.92568e-06
6.59109e-06
5.47982e-06
4.58722e-06
3.88706e-06
3.34264e-06
2.9162e-06
2.57507e-06
2.29439e-06
2.05676e-06
1.85075e-06
1.66906e-06
1.50699e-06
1.3614e-06
1.22995e-06
1.11072e-06
1.00224e-06
9.0364e-07
8.14172e-07
7.33143e-07
6.59858e-07
5.93588e-07
5.33622e-07
4.79371e-07
4.30311e-07
3.8596e-07
3.45875e-07
3.09659e-07
2.76957e-07
2.47449e-07
2.20844e-07
1.96873e-07
1.75294e-07
1.55892e-07
1.38468e-07
1.22839e-07
1.08837e-07
9.6308e-08
8.51099e-08
7.51171e-08
6.62145e-08
5.82938e-08
5.12546e-08
4.50056e-08
3.94673e-08
3.45678e-08
3.02392e-08
2.64202e-08
2.30556e-08
2.0095e-08
1.74935e-08
1.5211e-08