/*--------------------------------*- C++ -*----------------------------------*\
| =========                 |                                                 |
| \\      /  F ield         | OpenFOAM: The Open Source CFD Toolbox           |
|  \\    /   O peration     | Version:  2.1.x                                 |
|   \\  /    A nd           | Web:      www.OpenFOAM.org                      |
|    \\/     M anipulation  |                                                 |
\*---------------------------------------------------------------------------*/
FoamFile
{
    version     2.0;
    format      ascii;
    class       volScalarField;
    location    "0.007";
    object      p;
}
// * * * * * * * * * * * * * * * * * * * * * * * * * * * * * * * * * * * * * //

dimensions      [0 2 -2 0 0 0 0];

internalField   nonuniform List<scalar> 
12225
(
156.158
148.415
146.565
147.681
148.899
149.731
150.279
150.515
150.417
150.154
149.776
149.361
148.847
148.17
147.285
146.312
145.419
144.485
152.869
148.315
146.734
147.775
148.953
149.751
150.283
150.518
150.415
150.153
149.775
149.362
148.854
148.185
147.301
146.279
145.417
144.519
151.071
148.97
147.456
148.138
149.159
149.883
150.374
150.583
150.462
150.183
149.791
149.371
148.882
148.206
147.337
146.294
145.512
144.779
151.718
149.812
148.299
148.59
149.432
150.094
150.549
150.721
150.589
150.309
149.911
149.467
148.979
148.303
147.453
146.423
145.684
145.211
153.215
150.836
149.216
149.156
149.815
150.408
150.799
150.924
150.781
150.493
150.074
149.602
149.096
148.416
147.613
146.68
145.99
145.609
156.033
151.838
150.167
149.857
150.264
150.73
151.059
151.163
151.032
150.755
150.329
149.83
149.309
148.644
147.902
147.147
146.368
145.928
155.832
152.496
150.956
150.562
150.763
151.117
151.388
151.471
151.332
151.041
150.603
150.083
149.541
148.9
148.199
147.521
146.81
146.205
156.392
153.018
151.618
151.226
151.29
151.506
151.704
151.76
151.611
151.311
150.879
150.349
149.797
149.181
148.492
147.801
147.104
146.54
158.174
153.225
152.037
151.768
151.805
151.914
152.037
152.065
151.905
151.595
151.169
150.642
150.1
149.477
148.777
148.07
147.429
146.879
155.966
153.144
152.466
152.382
152.416
152.431
152.467
152.447
152.259
151.923
151.497
150.979
150.402
149.801
149.133
148.404
147.792
147.261
152.392
152.516
152.78
153.016
153.128
153.105
153.041
152.943
152.714
152.349
151.922
151.419
150.861
150.278
149.591
148.906
148.306
147.729
147.17
151.854
153.184
153.75
153.942
153.914
153.777
153.591
153.299
152.896
152.447
151.947
151.377
150.763
150.111
149.455
148.809
148.197
148.963
152.267
153.853
154.662
154.95
154.926
154.734
154.458
154.094
153.616
153.107
152.584
152.001
151.375
150.751
150.083
149.397
148.893
147.631
153.316
155.119
155.916
156.242
156.203
155.902
155.527
155.113
154.588
153.999
153.409
152.776
152.13
151.493
150.822
150.167
149.571
158.618
155.422
156.586
157.408
157.802
157.791
157.415
156.94
156.455
155.849
155.125
154.401
153.711
153.03
152.37
151.716
151.005
150.337
160.727
159.96
160.055
160.124
160.232
159.95
159.4
158.782
158.152
157.411
156.557
155.711
154.928
154.185
153.481
152.801
152.134
151.501
144.806
154.432
159.601
161.896
162.738
162.611
161.941
161.122
160.264
159.32
158.319
157.347
156.438
155.58
154.782
154.052
153.373
152.719
156.667
165.585
167.808
168.04
167.42
166.465
165.272
163.977
162.674
161.43
160.264
159.175
158.141
157.153
156.239
155.423
154.707
154.029
180.413
180.174
177.556
174.774
172.55
170.615
168.714
166.838
165.089
163.532
162.145
160.879
159.699
158.585
157.563
156.674
155.875
155.112
202.943
190.048
184.141
180.268
176.946
174.074
171.498
169.188
167.128
165.289
163.673
162.261
160.995
159.816
158.717
157.719
156.836
156.05
213.279
199.538
190.971
185.068
180.541
176.831
173.739
171.131
168.836
166.769
164.962
163.411
162.056
160.816
159.64
158.553
157.589
156.729
210.444
201.412
194.134
188.117
183.174
178.974
175.453
172.542
170.059
167.868
165.954
164.308
162.874
161.572
160.342
159.193
158.166
157.291
211.822
204.361
196.817
190.357
184.945
180.407
176.631
173.561
170.997
168.75
166.768
165.035
163.515
162.141
160.865
159.681
158.617
157.692
216.357
206.416
198.747
191.906
186.161
181.404
177.478
174.287
171.642
169.353
167.328
165.535
163.946
162.517
161.212
160.018
158.943
158.009
211.993
207.863
200.208
192.892
186.818
181.949
178.026
174.82
172.136
169.812
167.752
165.91
164.262
162.784
161.449
160.242
159.163
158.23
214.324
209.981
201.348
193.505
187.185
182.281
178.357
175.12
172.402
170.064
167.998
166.14
164.465
162.96
161.608
160.394
159.313
158.372
225.777
212.923
202.155
193.675
187.26
182.406
178.513
175.274
172.546
170.205
168.138
166.275
164.589
163.067
161.701
160.478
159.394
158.453
231.898
214.977
202.452
193.546
187.204
182.426
178.548
175.305
172.588
170.27
168.223
166.37
164.684
163.157
161.783
160.551
159.456
158.503
238.352
216.554
202.269
193.145
186.982
182.342
178.54
175.336
172.637
170.328
168.284
166.429
164.741
163.212
161.836
160.605
159.503
158.514
243.845
217.935
202.518
193.157
186.924
182.292
178.531
175.362
172.676
170.369
168.323
166.47
164.783
163.256
161.88
160.651
159.549
158.568
131.824
131.8
131.752
131.68
131.583
131.463
131.319
131.151
130.961
130.75
130.52
130.27
130.006
129.729
129.443
129.154
128.867
128.589
128.328
128.094
127.896
127.745
127.654
127.633
127.694
127.848
128.105
128.471
128.953
129.559
130.283
131.121
132.063
133.097
134.206
135.374
136.58
137.807
139.035
140.245
141.422
142.552
143.624
144.627
145.555
146.403
147.169
147.854
148.462
148.865
149.308
149.664
149.942
150.147
150.285
150.359
150.376
150.338
150.251
150.118
149.944
149.731
149.484
149.206
148.899
148.567
148.212
147.837
147.442
147.032
146.606
146.168
145.717
145.256
144.786
144.307
143.82
143.327
142.827
142.322
141.812
141.298
140.779
140.257
139.73
139.2
138.667
138.131
137.591
137.048
136.502
135.954
135.402
134.847
134.29
133.729
133.165
132.598
132.029
131.456
130.879
130.3
129.717
129.13
128.54
127.947
127.35
126.749
126.144
125.536
124.923
124.307
123.686
123.062
122.433
121.8
121.162
120.52
119.874
119.223
118.568
117.908
117.243
116.573
115.899
115.219
114.535
113.846
113.151
112.452
111.747
111.037
110.321
109.601
108.874
108.143
107.406
106.663
105.914
105.16
104.4
103.635
102.863
102.086
101.302
100.513
99.7174
98.9159
98.1081
97.2942
96.4741
95.6477
94.815
93.9759
93.1304
92.2785
91.4201
90.5553
89.6838
88.8062
87.9216
87.0317
86.1337
85.2322
84.3204
83.409
82.4836
81.5633
80.6271
79.6975
78.7562
77.8188
76.8757
75.9422
74.9986
74.0837
73.1577
72.2728
71.4052
70.5656
131.789
131.766
131.718
131.646
131.549
131.427
131.279
131.107
130.911
130.692
130.451
130.19
129.911
129.618
129.314
129.006
128.698
128.399
128.116
127.859
127.639
127.467
127.357
127.319
127.366
127.509
127.76
128.126
128.615
129.226
129.961
130.815
131.777
132.833
133.968
135.161
136.394
137.647
138.899
140.132
141.331
142.479
143.567
144.584
145.523
146.379
147.15
147.832
148.421
148.91
149.334
149.684
149.959
150.164
150.301
150.375
150.391
150.352
150.264
150.13
149.954
149.739
149.491
149.211
148.903
148.569
148.213
147.837
147.442
147.03
146.604
146.165
145.714
145.253
144.783
144.304
143.817
143.324
142.825
142.32
141.811
141.297
140.778
140.256
139.73
139.2
138.667
138.131
137.591
137.049
136.503
135.955
135.403
134.849
134.291
133.731
133.167
132.6
132.031
131.458
130.881
130.302
129.719
129.132
128.542
127.949
127.352
126.751
126.146
125.538
124.926
124.309
123.689
123.064
122.435
121.802
121.165
120.523
119.877
119.226
118.57
117.91
117.245
116.576
115.901
115.222
114.537
113.848
113.154
112.454
111.749
111.039
110.324
109.603
108.877
108.145
107.408
106.665
105.917
105.163
104.403
103.637
102.865
102.088
101.305
100.515
99.7197
98.9181
98.1103
97.2964
96.4763
95.6498
94.8171
93.978
93.1325
92.2805
91.422
90.5572
89.6857
88.8081
87.9234
87.0335
86.1351
85.2341
84.3214
83.411
82.4841
81.565
80.6274
79.6981
78.7569
77.8177
76.8761
75.9394
74.9978
74.0763
73.1555
72.2563
71.3928
70.5467
131.707
131.684
131.632
131.553
131.448
131.318
131.161
130.979
130.77
130.535
130.275
129.993
129.689
129.368
129.033
128.69
128.345
128.005
127.68
127.38
127.117
126.903
126.752
126.677
126.692
126.809
127.04
127.395
127.879
128.501
129.259
130.144
131.146
132.249
133.434
134.682
135.97
137.276
138.579
139.86
141.101
142.287
143.407
144.452
145.414
146.289
147.074
147.768
148.367
148.879
149.31
149.663
149.94
150.146
150.284
150.359
150.374
150.335
150.246
150.111
149.934
149.719
149.469
149.189
148.88
148.547
148.191
147.814
147.42
147.009
146.584
146.145
145.695
145.235
144.766
144.288
143.802
143.31
142.812
142.309
141.8
141.286
140.769
140.247
139.722
139.193
138.66
138.124
137.586
137.044
136.498
135.95
135.399
134.845
134.288
133.727
133.164
132.598
132.028
131.455
130.879
130.3
129.717
129.131
128.541
127.948
127.351
126.75
126.145
125.537
124.925
124.308
123.688
123.063
122.434
121.801
121.164
120.522
119.876
119.225
118.57
117.91
117.245
116.575
115.901
115.221
114.537
113.848
113.153
112.454
111.749
111.039
110.323
109.603
108.877
108.145
107.408
106.665
105.916
105.162
104.402
103.637
102.865
102.088
101.304
100.515
99.7195
98.918
98.1102
97.2963
96.4762
95.6498
94.817
93.9779
93.1324
92.2804
91.4219
90.5571
89.6854
88.8079
87.9229
87.0332
86.1344
85.2336
84.3203
83.4098
82.4829
81.5625
80.626
79.6934
78.7543
77.8103
76.8709
75.9271
74.9878
74.056
73.1347
72.2174
71.3439
70.4525
131.54
131.517
131.464
131.386
131.276
131.139
130.97
130.77
130.54
130.28
129.991
129.676
129.335
128.972
128.59
128.195
127.793
127.392
127.003
126.636
126.304
126.023
125.807
125.672
125.634
125.709
125.91
126.248
126.732
127.369
128.157
129.089
130.151
131.324
132.589
133.92
135.291
136.681
138.063
139.417
140.724
141.969
143.141
144.229
145.228
146.133
146.943
147.657
148.276
148.805
149.248
149.609
149.893
150.103
150.244
150.321
150.338
150.3
150.211
150.076
149.899
149.684
149.434
149.154
148.846
148.512
148.157
147.781
147.387
146.978
146.553
146.116
145.668
145.209
144.741
144.264
143.78
143.29
142.793
142.29
141.783
141.27
140.754
140.233
139.709
139.181
138.649
138.114
137.576
137.035
136.49
135.943
135.392
134.839
134.282
133.722
133.159
132.593
132.024
131.452
130.876
130.297
129.714
129.128
128.539
127.946
127.349
126.748
126.144
125.536
124.923
124.307
123.687
123.062
122.434
121.801
121.163
120.522
119.875
119.225
118.569
117.909
117.245
116.575
115.901
115.221
114.537
113.848
113.153
112.454
111.749
111.039
110.324
109.603
108.877
108.145
107.408
106.665
105.917
105.163
104.403
103.637
102.865
102.088
101.305
100.515
99.7197
98.9181
98.1103
97.2964
96.4762
95.6498
94.817
93.9779
93.1323
92.2803
91.4217
90.5568
89.6851
88.8074
87.9224
87.0323
86.1338
85.2318
84.3196
83.4066
82.4818
81.5574
80.6238
79.6861
78.7494
77.8001
76.8613
75.9113
74.9697
74.0275
73.0977
72.1628
71.259
70.328
131.386
131.359
131.294
131.191
131.061
130.897
130.703
130.478
130.22
129.929
129.604
129.243
128.851
128.428
127.979
127.509
127.025
126.536
126.051
125.584
125.149
124.765
124.449
124.221
124.099
124.104
124.252
124.559
125.034
125.69
126.524
127.527
128.68
129.959
131.344
132.8
134.297
135.811
137.309
138.771
140.175
141.507
142.754
143.906
144.958
145.907
146.752
147.493
148.137
148.687
149.147
149.522
149.816
150.033
150.18
150.26
150.28
150.244
150.156
150.022
149.845
149.631
149.382
149.102
148.795
148.463
148.108
147.734
147.342
146.933
146.511
146.076
145.629
145.172
144.706
144.231
143.749
143.26
142.765
142.265
141.759
141.248
140.733
140.214
139.691
139.164
138.634
138.1
137.563
137.022
136.479
135.932
135.383
134.83
134.274
133.715
133.152
132.587
132.018
131.446
130.871
130.292
129.71
129.124
128.535
127.942
127.346
126.745
126.141
125.533
124.921
124.305
123.685
123.061
122.432
121.799
121.162
120.521
119.875
119.224
118.569
117.909
117.244
116.575
115.9
115.221
114.537
113.847
113.153
112.454
111.749
111.039
110.323
109.603
108.877
108.145
107.408
106.665
105.917
105.163
104.403
103.637
102.865
102.088
101.305
100.515
99.7197
98.9182
98.1104
97.2965
96.4763
95.6498
94.817
93.9778
93.1322
92.2801
91.4215
90.5565
89.6847
88.8068
87.9219
87.0312
86.133
85.2298
84.3187
83.4031
82.4805
81.5518
80.6211
79.6788
78.7426
77.7906
76.8478
75.8952
74.9461
73.9971
73.0534
72.1048
71.1666
70.2032
131.068
131.047
130.99
130.9
130.773
130.604
130.395
130.145
129.855
129.517
129.132
128.706
128.243
127.74
127.199
126.626
126.027
125.41
124.787
124.175
123.588
123.049
122.58
122.206
121.952
121.844
121.906
122.157
122.613
123.292
124.188
125.294
126.578
128.013
129.575
131.214
132.897
134.589
136.256
137.873
139.417
140.872
142.225
143.467
144.593
145.602
146.494
147.27
147.948
148.526
149.009
149.401
149.709
149.937
150.092
150.178
150.202
150.169
150.083
149.951
149.775
149.562
149.315
149.036
148.73
148.4
148.047
147.675
147.285
146.879
146.459
146.026
145.582
145.127
144.664
144.191
143.712
143.225
142.732
142.234
141.73
141.221
140.708
140.19
139.669
139.144
138.615
138.082
137.546
137.007
136.465
135.919
135.371
134.819
134.263
133.705
133.144
132.579
132.011
131.439
130.865
130.286
129.705
129.12
128.531
127.938
127.342
126.742
126.138
125.53
124.919
124.303
123.683
123.059
122.431
121.798
121.161
120.519
119.873
119.223
118.568
117.908
117.243
116.574
115.9
115.22
114.536
113.847
113.153
112.453
111.749
111.039
110.323
109.603
108.877
108.145
107.408
106.665
105.917
105.163
104.403
103.637
102.865
102.088
101.305
100.515
99.7198
98.9182
98.1105
97.2965
96.4763
95.6498
94.817
93.9778
93.1321
92.2799
91.4213
90.5561
89.6843
88.8062
87.9212
87.0301
86.132
85.2278
84.3172
83.3998
82.4781
81.547
80.6166
79.672
78.7341
77.7804
76.8324
75.8779
74.9196
73.9654
73.0062
72.043
71.0771
70.0833
130.967
130.917
130.806
130.669
130.497
130.293
130.033
129.724
129.378
128.995
128.564
128.074
127.52
126.907
126.242
125.529
124.772
123.978
123.162
122.337
121.527
120.754
120.051
119.449
118.986
118.697
118.615
118.771
119.186
119.887
120.866
122.117
123.594
125.262
127.087
128.998
130.953
132.907
134.817
136.656
138.399
140.026
141.526
142.891
144.121
145.211
146.151
146.983
147.706
148.32
148.832
149.247
149.572
149.814
149.979
150.073
150.102
150.073
149.991
149.861
149.688
149.477
149.231
148.955
148.651
148.323
147.973
147.604
147.216
146.814
146.396
145.967
145.525
145.074
144.613
144.144
143.667
143.183
142.693
142.197
141.695
141.189
140.678
140.162
139.643
139.119
138.592
138.061
137.527
136.989
136.448
135.904
135.356
134.805
134.251
133.694
133.133
132.569
132.002
131.431
130.857
130.279
129.698
129.114
128.525
127.933
127.337
126.738
126.134
125.527
124.916
124.3
123.68
123.056
122.428
121.796
121.159
120.518
119.872
119.222
118.567
117.907
117.242
116.573
115.899
115.22
114.536
113.847
113.152
112.453
111.748
111.038
110.323
109.602
108.876
108.145
107.408
106.665
105.917
105.163
104.403
103.637
102.865
102.088
101.305
100.515
99.7198
98.9183
98.1105
97.2965
96.4763
95.6498
94.8169
93.9777
93.1319
92.2797
91.421
90.5557
89.6838
88.8055
87.9204
87.0288
86.1308
85.2258
84.3153
83.3966
82.4749
81.5424
80.6107
79.6656
78.7235
77.7701
76.8154
75.8587
74.8927
73.9304
72.9586
71.9795
70.9906
69.9714
130.589
130.546
130.437
130.318
130.181
129.965
129.703
129.392
129.013
128.55
128.002
127.38
126.705
125.964
125.143
124.24
123.263
122.223
121.127
119.994
118.848
117.724
116.655
115.693
114.886
114.292
113.961
113.943
114.271
115.005
116.116
117.593
119.364
121.387
123.604
125.923
128.282
130.621
132.884
135.039
137.059
138.925
140.627
142.163
143.538
144.767
145.687
146.62
147.408
148.069
148.617
149.06
149.406
149.664
149.841
149.945
149.981
149.957
149.879
149.753
149.583
149.375
149.132
148.859
148.558
148.233
147.887
147.521
147.137
146.738
146.324
145.898
145.461
145.013
144.555
144.089
143.616
143.135
142.648
142.155
141.656
141.152
140.644
140.13
139.613
139.092
138.566
138.037
137.505
136.969
136.429
135.886
135.34
134.79
134.237
133.681
133.121
132.558
131.992
131.422
130.848
130.271
129.691
129.107
128.519
127.927
127.332
126.733
126.13
125.523
124.912
124.297
123.677
123.054
122.426
121.794
121.157
120.516
119.87
119.22
118.565
117.906
117.241
116.572
115.898
115.219
114.535
113.846
113.152
112.452
111.748
111.038
110.323
109.602
108.876
108.145
107.408
106.665
105.917
105.163
104.403
103.637
102.865
102.088
101.305
100.515
99.7198
98.9183
98.1105
97.2965
96.4763
95.6497
94.8168
93.9775
93.1317
92.2794
91.4206
90.5553
89.6833
88.8047
87.9196
87.0276
86.1294
85.2238
84.3131
83.3935
82.4712
81.5378
80.6043
79.6586
78.7125
77.7587
76.7976
75.8384
74.8648
73.893
72.9117
71.915
70.9084
69.8694
130.546
130.513
130.384
130.174
129.911
129.616
129.299
128.912
128.454
127.933
127.345
126.665
125.865
124.933
123.885
122.738
121.481
120.109
118.627
117.055
115.412
113.742
112.101
110.553
109.188
108.096
107.368
107.09
107.305
108.103
109.392
111.158
113.337
115.874
118.67
121.606
124.58
127.497
130.282
132.897
135.315
137.517
139.497
141.253
142.792
144.121
145.245
146.229
147.071
147.781
148.367
148.841
149.211
149.488
149.679
149.793
149.838
149.82
149.747
149.625
149.459
149.255
149.016
148.747
148.45
148.129
147.787
147.426
147.046
146.652
146.243
145.821
145.387
144.944
144.49
144.028
143.558
143.081
142.597
142.108
141.612
141.111
140.605
140.094
139.58
139.061
138.538
138.011
137.48
136.945
136.408
135.866
135.321
134.773
134.221
133.666
133.108
132.545
131.98
131.411
130.838
130.262
129.682
129.099
128.512
127.921
127.326
126.727
126.125
125.518
124.907
124.293
123.674
123.05
122.423
121.791
121.154
120.514
119.868
119.218
118.563
117.904
117.24
116.571
115.897
115.218
114.534
113.845
113.151
112.452
111.747
111.037
110.322
109.602
108.876
108.144
107.407
106.665
105.916
105.162
104.403
103.637
102.865
102.088
101.305
100.515
99.7198
98.9182
98.1105
97.2965
96.4762
95.6497
94.8167
93.9773
93.1315
92.2791
91.4203
90.5548
89.6827
88.8039
87.9186
87.0263
86.1278
85.2217
84.3105
83.3904
82.4669
81.5331
80.5972
79.6511
78.7013
77.7459
76.7803
75.816
74.8366
73.8555
72.864
71.8533
70.8315
69.7748
130.504
130.455
130.291
130.074
129.792
129.495
129.169
128.755
128.21
127.548
126.77
125.891
124.911
123.818
122.57
121.135
119.499
117.662
115.631
113.415
111.041
108.554
106.041
103.613
101.409
99.5738
98.2513
97.6183
97.8485
98.4473
99.8293
101.946
104.703
107.97
111.604
115.451
119.354
123.161
126.748
130.056
133.058
135.745
138.115
140.175
141.941
143.419
144.69
145.772
146.687
147.452
148.083
148.592
148.989
149.286
149.492
149.618
149.671
149.661
149.594
149.477
149.316
149.117
148.883
148.619
148.327
148.012
147.675
147.319
146.945
146.555
146.152
145.735
145.306
144.867
144.418
143.961
143.495
143.022
142.542
142.055
141.563
141.065
140.563
140.055
139.543
139.026
138.506
137.981
137.452
136.92
136.384
135.844
135.301
134.754
134.204
133.65
133.093
132.532
131.967
131.399
130.827
130.252
129.673
129.09
128.504
127.914
127.319
126.721
126.119
125.513
124.903
124.288
123.67
123.047
122.419
121.788
121.152
120.511
119.866
119.216
118.562
117.902
117.238
116.569
115.896
115.217
114.533
113.844
113.15
112.451
111.747
111.037
110.322
109.601
108.875
108.144
107.407
106.665
105.916
105.162
104.402
103.637
102.865
102.088
101.305
100.515
99.7198
98.9182
98.1104
97.2964
96.4762
95.6495
94.8166
93.9771
93.1312
92.2788
91.4198
90.5543
89.6821
88.8031
87.9175
87.025
86.1261
85.2196
84.3078
83.3872
82.4625
81.5281
80.59
79.6432
78.6899
77.7325
76.7628
75.7927
74.8089
73.8174
72.8174
71.7952
70.7581
69.6883
130.539
130.461
130.292
130.068
129.773
129.413
129.007
128.517
127.919
127.223
126.414
125.448
124.278
122.877
121.246
119.393
117.3
114.921
112.204
109.136
105.736
102.091
98.3636
94.7474
91.4323
88.5979
86.4218
85.0828
84.7309
85.4089
87.2153
90.053
93.7161
97.9828
102.651
107.552
112.547
117.467
122.129
126.401
130.217
133.572
136.474
138.943
140.973
142.671
144.085
145.268
146.26
147.086
147.764
148.31
148.736
149.055
149.278
149.417
149.48
149.478
149.418
149.308
149.154
148.961
148.733
148.475
148.19
147.881
147.551
147.201
146.833
146.45
146.052
145.641
145.218
144.784
144.34
143.887
143.426
142.957
142.481
141.999
141.51
141.016
140.517
140.012
139.503
138.989
138.471
137.949
137.422
136.892
136.358
135.82
135.279
134.733
134.185
133.632
133.076
132.516
131.953
131.386
130.815
130.241
129.663
129.081
128.495
127.906
127.312
126.714
126.113
125.507
124.897
124.283
123.665
123.043
122.416
121.784
121.149
120.508
119.863
119.214
118.559
117.9
117.237
116.568
115.894
115.215
114.532
113.843
113.149
112.45
111.746
111.036
110.321
109.601
108.875
108.144
107.407
106.664
105.916
105.162
104.402
103.637
102.865
102.088
101.305
100.515
99.7197
98.9181
98.1104
97.2963
96.476
95.6494
94.8164
93.9769
93.1309
92.2785
91.4194
90.5537
89.6814
88.8022
87.9164
87.0236
86.1243
85.2175
84.3049
83.3839
82.4579
81.5229
80.5827
79.6347
78.6786
77.7184
76.7453
75.7696
74.7808
73.7806
72.7725
71.7394
70.6896
69.6093
130.879
130.783
130.614
130.362
130.015
129.56
129.036
128.428
127.716
126.889
125.924
124.787
123.457
121.909
120.094
117.908
115.244
112.056
108.337
104.097
99.3994
94.392
89.2972
84.3905
79.9249
76.0888
73.0707
71.0532
70.1534
71.3299
73.9156
77.7133
82.422
87.7239
93.3342
99.0974
104.988
110.918
116.68
122.051
126.853
131.028
134.572
137.541
139.951
141.891
143.458
144.741
145.805
146.687
147.411
147.991
148.446
148.787
149.029
149.183
149.26
149.268
149.218
149.117
148.971
148.786
148.566
148.316
148.039
147.738
147.415
147.072
146.712
146.335
145.944
145.539
145.122
144.694
144.256
143.808
143.352
142.888
142.416
141.938
141.454
140.963
140.467
139.966
139.46
138.949
138.434
137.914
137.39
136.862
136.33
135.794
135.255
134.711
134.164
133.613
133.058
132.5
131.938
131.372
130.802
130.229
129.652
129.071
128.486
127.897
127.304
126.707
126.106
125.501
124.892
124.278
123.66
123.038
122.412
121.781
121.145
120.505
119.861
119.211
118.557
117.898
117.235
116.566
115.893
115.214
114.531
113.842
113.148
112.449
111.745
111.036
110.321
109.6
108.875
108.143
107.406
106.664
105.916
105.162
104.402
103.637
102.865
102.088
101.304
100.515
99.7196
98.918
98.1103
97.2962
96.4759
95.6492
94.8162
93.9766
93.1306
92.2781
91.419
90.5532
89.6807
88.8014
87.9153
87.0222
86.1225
85.2154
84.302
83.3806
82.4533
81.5176
80.5755
79.626
78.6675
77.704
76.728
75.7465
74.753
73.7456
72.7286
71.6871
70.6262
69.5359
131.527
131.416
131.207
130.911
130.527
130.045
129.479
128.819
128.051
127.123
126.001
124.662
123.087
121.237
119.034
116.308
112.992
109.022
104.417
99.1883
93.3999
87.207
80.8232
74.5138
68.5638
63.326
59.2067
56.6804
56.2054
57.2126
60.1445
64.8122
70.8496
77.8314
85.0975
92.024
98.5081
104.877
111.275
117.506
123.249
128.297
132.451
135.991
138.843
141.077
142.815
144.194
145.322
146.257
147.024
147.637
148.115
148.478
148.739
148.912
149.005
149.028
148.99
148.901
148.766
148.591
148.382
148.142
147.874
147.582
147.268
146.934
146.581
146.212
145.828
145.43
145.02
144.598
144.166
143.724
143.273
142.814
142.347
141.874
141.393
140.907
140.415
139.917
139.414
138.906
138.394
137.877
137.356
136.83
136.301
135.767
135.229
134.687
134.142
133.593
133.039
132.482
131.922
131.357
130.788
130.216
129.64
129.06
128.476
127.888
127.295
126.699
126.099
125.494
124.886
124.273
123.655
123.033
122.407
121.777
121.142
120.502
119.858
119.208
118.555
117.896
117.233
116.564
115.891
115.213
114.529
113.841
113.147
112.448
111.744
111.035
110.32
109.6
108.874
108.143
107.406
106.663
105.915
105.162
104.402
103.636
102.865
102.088
101.304
100.515
99.7195
98.9179
98.1101
97.2961
96.4758
95.6491
94.8159
93.9764
93.1303
92.2777
91.4185
90.5526
89.6799
88.8005
87.9141
87.0208
86.1207
85.2132
84.2992
83.3772
82.4488
81.5122
80.5684
79.6172
78.6565
77.6898
76.7108
75.7241
74.726
73.7119
72.687
71.6383
70.5671
69.4687
132.387
132.253
131.987
131.625
131.177
130.654
130.053
129.371
128.593
127.654
126.5
125.098
123.4
121.337
118.833
115.641
111.66
106.909
101.461
95.2922
88.4323
80.9531
72.9964
64.799
56.7244
49.3429
43.3411
39.3699
37.9696
39.2887
43.3019
49.7572
57.9124
67.3244
77.3445
86.493
93.9709
100.608
107.064
113.577
119.863
125.574
130.437
134.461
137.704
140.228
142.144
143.618
144.801
145.783
146.595
147.243
147.744
148.124
148.404
148.597
148.712
148.756
148.737
148.663
148.542
148.38
148.182
147.954
147.697
147.415
147.111
146.786
146.443
146.082
145.706
145.315
144.912
144.497
144.071
143.635
143.19
142.736
142.275
141.806
141.33
140.848
140.359
139.866
139.366
138.862
138.352
137.838
137.32
136.797
136.269
135.738
135.202
134.662
134.119
133.571
133.019
132.464
131.904
131.341
130.774
130.202
129.627
129.048
128.465
127.878
127.286
126.691
126.091
125.487
124.879
124.266
123.65
123.028
122.403
121.772
121.138
120.498
119.854
119.205
118.552
117.894
117.231
116.562
115.889
115.211
114.528
113.839
113.146
112.447
111.743
111.034
110.319
109.599
108.873
108.142
107.405
106.663
105.915
105.161
104.402
103.636
102.865
102.087
101.304
100.515
99.7194
98.9178
98.11
97.296
96.4756
95.6489
94.8157
93.9761
93.13
92.2774
91.418
90.552
89.6792
88.7996
87.913
87.0194
86.1189
85.211
84.2964
83.3738
82.4444
81.5067
80.5615
79.6085
78.6457
77.6758
76.694
75.7027
74.6997
73.68
72.6479
71.5923
70.5128
69.4071
133.415
133.26
132.94
132.498
131.98
131.406
130.753
130.019
129.177
128.176
126.968
125.515
123.759
121.603
118.909
115.419
111.004
105.738
99.7382
92.8036
84.885
75.9877
66.286
56.1322
46.1245
37.1004
29.9702
25.3586
23.7774
25.6192
30.8793
39.2864
48.9818
59.5073
71.5108
82.7884
91.6118
98.471
104.609
110.843
117.241
123.405
128.804
133.207
136.703
139.423
141.478
143.029
144.252
145.267
146.116
146.802
147.332
147.732
148.03
148.244
148.384
148.454
148.46
148.408
148.304
148.158
147.973
147.757
147.511
147.241
146.947
146.632
146.298
145.946
145.578
145.195
144.799
144.391
143.972
143.542
143.103
142.655
142.199
141.735
141.264
140.786
140.302
139.812
139.316
138.815
138.309
137.798
137.282
136.761
136.237
135.707
135.174
134.636
134.094
133.548
132.998
132.444
131.886
131.324
130.758
130.188
129.614
129.036
128.454
127.867
127.276
126.682
126.083
125.48
124.872
124.26
123.644
123.023
122.398
121.768
121.134
120.495
119.851
119.202
118.549
117.891
117.228
116.56
115.887
115.209
114.526
113.838
113.145
112.446
111.742
111.033
110.318
109.598
108.873
108.142
107.405
106.663
105.915
105.161
104.401
103.636
102.865
102.087
101.304
100.515
99.7192
98.9176
98.1098
97.2958
96.4754
95.6487
94.8155
93.9759
93.1297
92.277
91.4176
90.5515
89.6785
88.7987
87.9118
87.018
86.1171
85.2089
84.2936
83.3704
82.44
81.5014
80.5547
79.5999
78.6352
77.6624
76.6777
75.6823
74.6747
73.6501
72.6112
71.5496
70.4631
69.3506
134.546
134.421
134.075
133.55
132.981
132.388
131.746
131.027
130.182
129.173
127.958
126.506
124.76
122.621
119.931
116.404
111.884
106.399
100.031
92.6878
84.3066
74.9064
64.6559
54.031
43.8016
34.7927
27.6752
23.1384
22.1247
24.4904
29.6999
38.3308
48.3513
58.3698
69.8198
81.7391
91.3788
98.107
103.721
109.469
115.73
122.076
127.782
132.391
135.983
138.767
140.887
142.487
143.737
144.769
145.639
146.352
146.909
147.332
147.649
147.883
148.045
148.141
148.172
148.143
148.06
147.929
147.759
147.555
147.321
147.061
146.778
146.473
146.149
145.806
145.446
145.072
144.684
144.283
143.87
143.447
143.014
142.571
142.12
141.662
141.195
140.722
140.242
139.756
139.264
138.767
138.264
137.756
137.243
136.725
136.203
135.676
135.144
134.609
134.069
133.525
132.976
132.424
131.867
131.307
130.742
130.173
129.6
129.023
128.442
127.856
127.266
126.673
126.074
125.472
124.865
124.253
123.638
123.017
122.393
121.763
121.129
120.491
119.847
119.199
118.546
117.888
117.226
116.558
115.885
115.208
114.525
113.837
113.143
112.445
111.741
111.032
110.318
109.598
108.872
108.141
107.404
106.662
105.914
105.161
104.401
103.636
102.864
102.087
101.304
100.514
99.7191
98.9175
98.1097
97.2956
96.4752
95.6485
94.8153
93.9756
93.1294
92.2766
91.4171
90.5509
89.6778
88.7978
87.9107
87.0167
86.1154
85.2068
84.291
83.3672
82.4359
81.4962
80.5482
79.5917
78.6251
77.6496
76.6621
75.6631
74.6512
73.622
72.5772
71.5102
70.4177
69.2993
135.421
135.475
135.152
134.622
134.072
133.521
132.961
132.333
131.589
130.685
129.589
128.287
126.709
124.716
122.162
118.813
114.473
109.087
102.763
95.5565
87.4672
78.5796
69.042
59.3106
49.9318
41.8171
35.4852
31.1556
30.3622
32.7646
36.9658
44.6835
54.5055
63.3666
72.4172
83.1692
92.7059
99.0937
104.225
109.57
115.454
121.555
127.202
131.777
135.322
138.112
140.3
141.98
143.288
144.355
145.247
145.976
146.547
146.985
147.317
147.565
147.742
147.855
147.906
147.895
147.826
147.707
147.547
147.352
147.129
146.879
146.606
146.311
145.996
145.662
145.311
144.945
144.565
144.171
143.766
143.349
142.922
142.486
142.04
141.587
141.125
140.657
140.181
139.699
139.211
138.717
138.217
137.712
137.202
136.687
136.168
135.643
135.114
134.58
134.042
133.5
132.954
132.403
131.848
131.289
130.725
130.158
129.586
129.01
128.429
127.845
127.256
126.663
126.065
125.464
124.857
124.246
123.631
123.012
122.387
121.758
121.125
120.486
119.843
119.196
118.543
117.886
117.223
116.556
115.883
115.206
114.523
113.835
113.142
112.444
111.74
111.031
110.317
109.597
108.871
108.14
107.404
106.662
105.914
105.16
104.401
103.635
102.864
102.087
101.304
100.514
99.7189
98.9173
98.1095
97.2954
96.475
95.6482
94.815
93.9754
93.1291
92.2763
91.4167
90.5503
89.6771
88.7969
87.9097
87.0154
86.1138
85.2049
84.2885
83.3641
82.4319
81.4913
80.542
79.5839
78.6155
77.6376
76.6475
75.6451
74.6292
73.596
72.546
71.4741
70.3766
69.2528
135.935
136.145
135.72
135.301
134.912
134.562
134.186
133.738
133.18
132.45
131.536
130.398
128.962
127.129
124.807
121.882
118.161
113.473
107.855
101.384
94.3129
86.7151
78.5776
70.5162
62.5498
55.7431
50.6339
46.1262
44.9864
47.4974
51.1208
56.1839
63.9136
72.1267
80.1168
88.6604
96.0984
101.128
105.542
110.771
116.562
122.256
127.451
131.717
134.996
137.609
139.755
141.486
142.862
143.983
144.917
145.673
146.257
146.704
147.049
147.307
147.49
147.611
147.674
147.674
147.614
147.501
147.345
147.155
146.938
146.696
146.432
146.146
145.84
145.515
145.173
144.815
144.443
144.057
143.658
143.249
142.828
142.398
141.958
141.51
141.054
140.59
140.119
139.641
139.157