/*--------------------------------*- C++ -*----------------------------------*\
| =========                 |                                                 |
| \\      /  F ield         | OpenFOAM: The Open Source CFD Toolbox           |
|  \\    /   O peration     | Version:  2.1.x                                 |
|   \\  /    A nd           | Web:      www.OpenFOAM.org                      |
|    \\/     M anipulation  |                                                 |
\*---------------------------------------------------------------------------*/
FoamFile
{
    version     2.0;
    format      ascii;
    class       surfaceScalarField;
    location    "0.007";
    object      phi;
}
// * * * * * * * * * * * * * * * * * * * * * * * * * * * * * * * * * * * * * //

dimensions      [0 3 -1 0 0 0 0];

internalField   nonuniform List<scalar> 
24170
(
1.90487e-06
1.25859e-06
1.1527e-06
7.52165e-07
8.45766e-07
3.06939e-07
7.15609e-07
1.30156e-07
6.5221e-07
6.33991e-08
6.17174e-07
3.50365e-08
5.9889e-07
1.82837e-08
5.84046e-07
1.48438e-08
5.69757e-07
1.42892e-08
5.6105e-07
8.70741e-09
5.56367e-07
4.68236e-09
5.58184e-07
-1.81674e-09
5.59841e-07
-1.6564e-09
5.59697e-07
1.43801e-10
5.55753e-07
3.94388e-09
5.58968e-07
-3.21469e-09
5.62643e-07
-3.67584e-09
-3.46941e-08
5.97338e-07
3.3494e-06
1.298e-06
2.8865e-06
1.21507e-06
2.52914e-06
6.64298e-07
2.27491e-06
3.84393e-07
2.09435e-06
2.43957e-07
1.97213e-06
1.57261e-07
1.89126e-06
9.91502e-08
1.82845e-06
7.76514e-08
1.77977e-06
6.29682e-08
1.74621e-06
4.22744e-08
1.72572e-06
2.517e-08
1.71489e-06
9.01103e-09
1.70612e-06
7.1155e-09
1.69866e-06
7.60507e-09
1.68446e-06
1.81418e-08
1.68678e-06
-5.53369e-09
1.70428e-06
-2.11743e-08
-6.14921e-08
1.73107e-06
4.10563e-06
1.09646e-06
4.02205e-06
1.29865e-06
3.86467e-06
8.21676e-07
3.68871e-06
5.60346e-07
3.521e-06
4.1167e-07
3.38265e-06
2.95614e-07
3.27224e-06
2.09561e-07
3.17841e-06
1.71482e-07
3.09968e-06
1.41699e-07
3.03863e-06
1.03314e-07
2.99402e-06
6.9783e-08
2.96767e-06
3.53613e-08
2.944e-06
3.07901e-08
2.92525e-06
2.63539e-08
2.90481e-06
3.85767e-08
2.89878e-06
5.00603e-10
2.91654e-06
-3.89349e-08
-6.29371e-08
2.91798e-06
4.39863e-06
8.25437e-07
4.52416e-06
1.17312e-06
4.53632e-06
8.09512e-07
4.55644e-06
5.40229e-07
4.5522e-06
4.15912e-07
4.53249e-06
3.15318e-07
4.49132e-06
2.50732e-07
4.43724e-06
2.25561e-07
4.38155e-06
1.97392e-07
4.32609e-06
1.5878e-07
4.27177e-06
1.241e-07
4.23458e-06
7.25544e-08
4.21353e-06
5.18331e-08
4.18595e-06
5.39416e-08
4.15426e-06
7.02628e-08
4.14298e-06
1.17785e-08
4.17913e-06
-7.50825e-08
-4.29365e-08
4.15913e-06
4.8683e-06
5.91829e-07
5.08819e-06
9.53222e-07
5.15938e-06
7.38325e-07
5.21187e-06
4.87742e-07
5.21913e-06
4.08646e-07
5.19782e-06
3.36633e-07
5.16284e-06
2.85712e-07
5.13606e-06
2.52336e-07
5.13249e-06
2.00968e-07
5.13422e-06
1.5705e-07
5.13408e-06
1.24239e-07
5.14272e-06
6.39116e-08
5.16511e-06
2.94455e-08
5.16103e-06
5.8019e-08
5.14174e-06
8.95547e-08
5.14307e-06
1.04533e-08
5.16221e-06
-9.42321e-08
-5.06774e-08
5.16996e-06
5.42763e-06
5.40051e-07
5.50893e-06
8.71921e-07
5.53916e-06
7.08094e-07
5.59994e-06
4.2696e-07
5.67628e-06
3.32306e-07
5.72681e-06
2.86104e-07
5.74592e-06
2.66603e-07
5.74202e-06
2.56242e-07
5.72509e-06
2.17896e-07
5.70948e-06
1.72658e-07
5.71406e-06
1.1966e-07
5.73225e-06
4.57246e-08
5.74271e-06
1.89789e-08
5.74429e-06
5.6446e-08
5.77747e-06
5.63745e-08
5.79117e-06
-3.24654e-09
5.74068e-06
-4.37439e-08
-5.01617e-08
5.74016e-06
5.77254e-06
4.33542e-07
5.94942e-06
6.95036e-07
6.05093e-06
6.06591e-07
6.07371e-06
4.04172e-07
6.1089e-06
2.97119e-07
6.13951e-06
2.55491e-07
6.16129e-06
2.44832e-07
6.16689e-06
2.50633e-07
6.16681e-06
2.1798e-07
6.17509e-06
1.64375e-07
6.19485e-06
9.99005e-08
6.20662e-06
3.39549e-08
6.21485e-06
1.07484e-08
6.2496e-06
2.17035e-08
6.27965e-06
2.63239e-08
6.23595e-06
4.04501e-08
6.20103e-06
-8.82723e-09
-1.21809e-07
6.27268e-06
4.52976e-06
2.61318e-07
4.62799e-06
5.96808e-07
4.66007e-06
5.74511e-07
4.64551e-06
4.18734e-07
4.6535e-06
2.89124e-07
4.67791e-06
2.31088e-07
4.70776e-06
2.14978e-07
4.73893e-06
2.1946e-07
4.76756e-06
1.89354e-07
4.78811e-06
1.43827e-07
4.7894e-06
9.8608e-08
4.77421e-06
4.91422e-08
4.76482e-06
2.01393e-08
4.75752e-06
2.90029e-08
4.7353e-06
4.8545e-08
4.72959e-06
4.6165e-08
4.76951e-06
-4.87471e-08
-1.57235e-07
4.80493e-06
5.16848e-06
2.38929e-07
5.29553e-06
4.69758e-07
5.37282e-06
4.97216e-07
5.3996e-06
3.91956e-07
5.40593e-06
2.82787e-07
5.42061e-06
2.16414e-07
5.45443e-06
1.81158e-07
5.50336e-06
1.70523e-07
5.54447e-06
1.48253e-07
5.56705e-06
1.21243e-07
5.56226e-06
1.03398e-07
5.53347e-06
7.79353e-08
5.49573e-06
5.78794e-08
5.46453e-06
6.01968e-08
5.46919e-06
4.38917e-08
5.49489e-06
2.04596e-08
5.48359e-06
-3.74409e-08
-1.67108e-07
5.49346e-06
6.18507e-06
2.76021e-07
6.19379e-06
4.61038e-07
6.24813e-06
4.4287e-07
6.28323e-06
3.56857e-07
6.2794e-06
2.86623e-07
6.26353e-06
2.3228e-07
6.26199e-06
1.82699e-07
6.28095e-06
1.51557e-07
6.31299e-06
1.16217e-07
6.34478e-06
8.94545e-08
6.37238e-06
7.57925e-08
6.39107e-06
5.92509e-08
6.40722e-06
4.17301e-08
6.42711e-06
4.03002e-08
6.44591e-06
2.50998e-08
6.46283e-06
3.53431e-09
6.47654e-06
-5.11488e-08
-1.83834e-07
6.49327e-06
6.98049e-06
1.25124e-07
7.16831e-06
2.73219e-07
7.2544e-06
3.56775e-07
7.27888e-06
3.32384e-07
7.30197e-06
2.63526e-07
7.3541e-06
1.80157e-07
7.42674e-06
1.1006e-07
7.49011e-06
8.81774e-08
7.52653e-06
7.98037e-08
7.53943e-06
7.65554e-08
7.54174e-06
7.3481e-08
7.53721e-06
6.37787e-08
7.53697e-06
4.19687e-08
7.55128e-06
2.59884e-08
7.56853e-06
7.84989e-09
7.5984e-06
-2.63328e-08
7.6362e-06
-8.89436e-08
-1.69144e-07
7.62151e-06
8.1226e-06
8.78788e-08
8.17623e-06
2.19595e-07
8.28461e-06
2.48399e-07
8.38649e-06
2.30499e-07
8.46292e-06
1.87096e-07
8.50914e-06
1.33934e-07
8.52295e-06
9.62489e-08
8.51932e-06
9.18068e-08
8.50654e-06
9.25913e-08
8.50405e-06
7.90392e-08
8.52452e-06
5.30103e-08
8.56632e-06
2.19804e-08
8.62137e-06
-1.30764e-08
8.68406e-06
-3.67047e-08
8.75013e-06
-5.82196e-08
8.79585e-06
-7.20521e-08
8.77839e-06
-7.14856e-08
-1.49785e-07
8.75903e-06
9.69803e-06
3.1243e-07
9.66529e-06
2.52332e-07
9.74835e-06
1.65344e-07
9.85029e-06
1.28558e-07
9.94299e-06
9.43973e-08
1.0004e-05
7.29355e-08
1.00214e-05
7.88808e-08
1.00149e-05
9.82561e-08
1.00081e-05
9.94206e-08
1.00171e-05
7.00261e-08
1.00391e-05
3.09764e-08
1.0069e-05
-7.85771e-09
1.00967e-05
-4.08562e-08
1.01263e-05
-6.62274e-08
1.01519e-05
-8.38831e-08
1.01412e-05
-6.13171e-08
1.00878e-05
-1.81288e-08
-1.77163e-07
1.01152e-05
1.13202e-05
7.64074e-08
1.13507e-05
2.21847e-07
1.1337e-05
1.78992e-07
1.13303e-05
1.35273e-07
1.13624e-05
6.2362e-08
1.14396e-05
-4.31494e-09
1.15408e-05
-2.22693e-08
1.16408e-05
-1.82939e-09
1.17103e-05
2.99288e-08
1.17381e-05
4.2221e-08
1.17262e-05
4.29083e-08
1.16846e-05
3.37827e-08
1.16317e-05
1.19605e-08
1.15889e-05
-2.3413e-08
1.15613e-05
-5.6215e-08
1.15385e-05
-3.85497e-08
1.15357e-05
-1.5357e-08
-2.20369e-07
1.15789e-05
1.28093e-05
2.31483e-08
1.30175e-05
1.35972e-08
1.3199e-05
-2.50262e-09
1.33336e-05
6.54864e-10
1.33909e-05
5.12175e-09
1.3376e-05
1.06161e-08
1.33371e-05
1.65458e-08
1.33198e-05
1.54609e-08
1.33373e-05
1.2507e-08
1.33813e-05
-1.81711e-09
1.3445e-05
-2.08043e-08
1.35162e-05
-3.73556e-08
1.35849e-05
-5.67802e-08
1.36345e-05
-7.30434e-08
1.3661e-05
-8.27147e-08
1.37205e-05
-9.80358e-08
1.37854e-05
-8.02494e-08
-4.80833e-08
1.36131e-05
1.5285e-05
4.30767e-07
1.51481e-05
1.50474e-07
1.52003e-05
-5.46624e-08
1.52623e-05
-6.1375e-08
1.52638e-05
3.65637e-09
1.52312e-05
4.31602e-08
1.52248e-05
2.29461e-08
1.52738e-05
-3.34699e-08
1.53699e-05
-8.35826e-08
1.54835e-05
-1.15444e-07
1.55909e-05
-1.28179e-07
1.56812e-05
-1.27725e-07
1.57423e-05
-1.17838e-07
1.57659e-05
-9.66929e-08
1.57735e-05
-9.02694e-08
1.58121e-05
-1.366e-07
1.58609e-05
-1.29086e-07
7.03687e-08
1.57424e-05
1.73738e-05
2.24895e-08
1.75218e-05
2.55297e-09
1.75356e-05
-6.85122e-08
1.7505e-05
-3.07881e-08
1.7467e-05
4.16386e-08
1.74559e-05
5.43071e-08
1.75054e-05
-2.65689e-08
1.76206e-05
-1.48658e-07
1.77861e-05
-2.49074e-07
1.79714e-05
-3.00793e-07
1.81507e-05
-3.07421e-07
1.8298e-05
-2.75058e-07
1.84024e-05
-2.22175e-07
1.84763e-05
-1.70601e-07
1.85167e-05
-1.30673e-07
1.84735e-05
-9.33879e-08
1.8433e-05
-8.85982e-08
-1.5366e-07
1.8657e-05
1.77666e-05
-2.60859e-07
1.791e-05
-1.40842e-07
1.79475e-05
-1.0604e-07
1.80468e-05
-1.30133e-07
1.82148e-05
-1.26308e-07
1.83741e-05
-1.04986e-07
1.84423e-05
-9.48064e-08
1.8412e-05
-1.18374e-07
1.83319e-05
-1.68983e-07
1.82546e-05
-2.23456e-07
1.82106e-05
-2.63387e-07
1.82068e-05
-2.71262e-07
1.82368e-05
-2.52205e-07
1.82846e-05
-2.18381e-07
1.83261e-05
-1.72187e-07
1.83555e-05
-1.2278e-07
1.83683e-05
-1.01384e-07
-1.34432e-07
1.8349e-05
1.60114e-05
-2.36265e-07
1.59819e-05
-1.11382e-07
1.59456e-05
-6.96957e-08
1.59849e-05
-1.69438e-07
1.61186e-05
-2.60043e-07
1.62445e-05
-2.30877e-07
1.63006e-05
-1.50876e-07
1.62698e-05
-8.75674e-08
1.61813e-05
-8.05342e-08
1.60703e-05
-1.12426e-07
1.59729e-05
-1.66012e-07
1.59218e-05
-2.20168e-07
1.59241e-05
-2.54434e-07
1.59717e-05
-2.65963e-07
1.60551e-05
-2.55625e-07
1.61742e-05
-2.41864e-07
1.6286e-05
-2.1317e-07
-1.42003e-07
1.62935e-05
1.41315e-05
-2.48102e-07
1.4207e-05
-1.86862e-07
1.43646e-05
-2.27333e-07
1.4463e-05
-2.67763e-07
1.44725e-05
-2.69519e-07
1.44741e-05
-2.32528e-07
1.451e-05
-1.86753e-07
1.45841e-05
-1.61711e-07
1.46637e-05
-1.60126e-07
1.47165e-05
-1.65186e-07
1.47226e-05
-1.72107e-07
1.4684e-05
-1.81571e-07
1.46201e-05
-1.90594e-07
1.45555e-05
-2.01283e-07
1.45069e-05
-2.07061e-07
1.44677e-05
-2.02682e-07
1.44535e-05
-1.98967e-07
-2.13206e-07
1.45247e-05
1.28684e-05
1.94983e-08
1.2797e-05
-1.15412e-07
1.28531e-05
-2.83447e-07
1.29639e-05
-3.78559e-07
1.30576e-05
-3.63244e-07
1.31111e-05
-2.86048e-07
1.31319e-05
-2.07494e-07
1.31385e-05
-1.68389e-07
1.31423e-05
-1.6386e-07
1.3152e-05
-1.74935e-07
1.31669e-05
-1.87005e-07
1.31782e-05
-1.92902e-07
1.31807e-05
-1.93097e-07
1.3172e-05
-1.92572e-07
1.31563e-05
-1.91364e-07
1.3146e-05
-1.92328e-07
1.31378e-05
-1.90827e-07
-1.81797e-07
1.31064e-05
1.11534e-05
-1.23656e-07
1.12705e-05
-2.32573e-07
1.1317e-05
-3.29869e-07
1.1342e-05
-4.03585e-07
1.13743e-05
-3.95534e-07
1.14277e-05
-3.39431e-07
1.14977e-05
-2.77492e-07
1.15799e-05
-2.50599e-07
1.16705e-05
-2.54474e-07
1.17641e-05
-2.68525e-07
1.18526e-05
-2.75511e-07
1.19262e-05
-2.66547e-07
1.19785e-05
-2.45413e-07
1.20063e-05
-2.20353e-07
1.20109e-05
-1.95901e-07
1.1995e-05
-1.7645e-07
1.19662e-05
-1.6203e-07
-1.52408e-07
1.19368e-05
1.00939e-05
-2.69221e-07
1.0167e-05
-3.05622e-07
1.02644e-05
-4.27309e-07
1.03077e-05
-4.46918e-07
1.03117e-05
-3.99454e-07
1.0316e-05
-3.43791e-07
1.03562e-05
-3.17683e-07
1.04252e-05
-3.19557e-07
1.04946e-05
-3.23898e-07
1.05464e-05
-3.2036e-07
1.05763e-05
-3.05403e-07
1.05895e-05
-2.79732e-07
1.05929e-05
-2.48776e-07
1.05927e-05
-2.20147e-07
1.05944e-05
-1.9759e-07
1.06002e-05
-1.82286e-07
1.06116e-05
-1.73442e-07
-1.68836e-07
1.0628e-05
8.90311e-06
-3.71685e-07
9.15872e-06
-5.61237e-07
9.28707e-06
-5.55657e-07
9.32845e-06
-4.88303e-07
9.3401e-06
-4.11095e-07
9.3676e-06
-3.71297e-07
9.42439e-06
-3.74469e-07
9.48011e-06
-3.75276e-07
9.51184e-06
-3.55628e-07
9.51606e-06
-3.24585e-07
9.50626e-06
-2.956e-07
9.49982e-06
-2.73294e-07
9.506e-06
-2.5495e-07
9.52687e-06
-2.41018e-07
9.55714e-06
-2.27861e-07
9.5885e-06
-2.13651e-07
9.61453e-06
-1.99472e-07
-1.83035e-07
9.62873e-06
8.007e-06
-4.12423e-07
8.23052e-06
-7.84757e-07
8.42184e-06
-7.46975e-07
8.51774e-06
-5.84209e-07
8.53401e-06
-4.27363e-07
8.534e-06
-3.71285e-07
8.53503e-06
-3.75498e-07
8.54189e-06
-3.82139e-07
8.55403e-06
-3.67771e-07
8.57105e-06
-3.41599e-07
8.58983e-06
-3.14388e-07
8.60723e-06
-2.90694e-07
8.6224e-06
-2.70118e-07
8.63419e-06
-2.52809e-07
8.64324e-06
-2.36912e-07
8.651e-06
-2.21407e-07
8.65709e-06
-2.05566e-07
-1.88387e-07
8.66244e-06
7.30614e-06
-5.27345e-07
7.44386e-06
-9.22471e-07
7.58441e-06
-8.87529e-07
7.65681e-06
-6.56609e-07
7.72265e-06
-4.93199e-07
7.7878e-06
-4.36435e-07
7.82959e-06
-4.1729e-07
7.83865e-06
-3.91201e-07
7.82272e-06
-3.51842e-07
7.79463e-06
-3.13505e-07
7.76503e-06
-2.84795e-07
7.73745e-06
-2.63107e-07
7.71236e-06
-2.45032e-07
7.68768e-06
-2.28124e-07
7.66143e-06
-2.10668e-07
7.63468e-06
-1.94651e-07
7.60939e-06
-1.80281e-07
-1.69088e-07
7.59009e-06
6.47526e-06
-5.26139e-07
6.64713e-06
-1.09434e-06
6.80556e-06
-1.04596e-06
6.90465e-06
-7.55693e-07
6.98733e-06
-5.75881e-07
7.03015e-06
-4.79252e-07
7.02377e-06
-4.10914e-07
6.97551e-06
-3.42939e-07
6.90489e-06
-2.81222e-07
6.82882e-06
-2.37438e-07
6.7591e-06
-2.15076e-07
6.69878e-06
-2.02785e-07
6.64881e-06
-1.95057e-07
6.60535e-06
-1.84664e-07
6.56762e-06
-1.72938e-07
6.53226e-06
-1.59293e-07
6.49918e-06
-1.472e-07
-1.35495e-07
6.46558e-06
5.75719e-06
-8.48188e-07
5.97968e-06
-1.31682e-06
5.99205e-06
-1.05834e-06
5.94762e-06
-7.11261e-07
5.85922e-06
-4.87479e-07
5.73593e-06
-3.55967e-07
5.59484e-06
-2.69822e-07
5.45527e-06
-2.03371e-07
5.32912e-06
-1.55071e-07
5.21745e-06
-1.25761e-07
5.11594e-06
-1.13576e-07
5.02007e-06
-1.06913e-07
4.92821e-06
-1.03194e-07
4.8396e-06
-9.6052e-08
4.75775e-06
-9.1092e-08
4.68115e-06
-8.26908e-08
4.6126e-06
-7.86512e-08
-6.88802e-08
4.54599e-06
5.15489e-06
-1.02809e-06
4.88351e-06
-1.04544e-06
4.46513e-06
-6.39963e-07
4.11013e-06
-3.5626e-07
3.81493e-06
-1.92276e-07
3.56756e-06
-1.08602e-07
3.36511e-06
-6.7371e-08
3.20635e-06
-4.46058e-08
3.08242e-06
-3.11449e-08
2.98117e-06
-2.45091e-08
2.89134e-06
-2.37457e-08
2.8089e-06
-2.44766e-08
2.73158e-06
-2.58675e-08
2.66066e-06
-2.51352e-08
2.59526e-06
-2.56891e-08
2.5358e-06
-2.32339e-08
2.4849e-06
-2.77521e-08
-1.96332e-08
2.43565e-06
3.385e-06
2.33956e-06
1.6996e-06
1.34334e-06
1.15106e-06
1.04246e-06
9.75087e-07
9.30481e-07
8.99336e-07
8.74827e-07
8.51081e-07
8.26605e-07
8.00737e-07
7.75602e-07
7.49913e-07
7.26679e-07
6.98927e-07
6.79294e-07
-1.29956e-07
1.29956e-07
-2.7327e-07
1.43315e-07
-4.16663e-07
1.43393e-07
-5.61318e-07
1.44654e-07
-7.06713e-07
1.45395e-07
-8.53104e-07
1.46391e-07
-1.00059e-06
1.4749e-07
-1.14943e-06
1.48834e-07
-1.29992e-06
1.50491e-07
-1.4523e-06
1.52376e-07
-1.60666e-06
1.54364e-07
-1.763e-06
1.56341e-07
-1.9211e-06
1.58096e-07
-2.08049e-06
1.59396e-07
-2.24057e-06
1.60076e-07
-2.40046e-06
1.59887e-07
-2.55906e-06
1.58603e-07
-2.71503e-06
1.55969e-07
-2.8668e-06
1.51774e-07
-3.01259e-06
1.45791e-07
-3.15051e-06
1.37918e-07
-3.27846e-06
1.27952e-07
-3.39422e-06
1.1576e-07
-3.4956e-06
1.01376e-07
-3.58034e-06
8.47386e-08
-3.64631e-06
6.59777e-08
-3.69148e-06
4.51645e-08
-3.71417e-06
2.26908e-08
-3.71282e-06
-1.35202e-09
-3.68537e-06
-2.74492e-08
-3.63176e-06
-5.36084e-08
-3.55206e-06
-7.96955e-08
-3.44694e-06
-1.05124e-07
-3.31749e-06
-1.29448e-07
-3.16537e-06
-1.52125e-07
-2.99251e-06
-1.72861e-07
-2.80132e-06
-1.91189e-07
-2.59433e-06
-2.06986e-07
-2.37429e-06
-2.20042e-07
-2.14381e-06
-2.3048e-07
-1.90579e-06
-2.38024e-07
-1.66287e-06
-2.42919e-07
-1.41746e-06
-2.45411e-07
-1.17202e-06
-2.4544e-07
-9.28758e-07
-2.43259e-07
-6.89267e-07
-2.3949e-07
-4.55599e-07
-2.33668e-07
-2.28822e-07
-2.26777e-07
-9.86629e-09
-2.18956e-07
2.00746e-07
-2.10612e-07
4.01559e-07
-2.00813e-07
5.92057e-07
-1.90498e-07
7.71843e-07
-1.79786e-07
9.40641e-07
-1.68798e-07
1.0983e-06
-1.57658e-07
1.24478e-06
-1.46476e-07
1.38013e-06
-1.35354e-07
1.50451e-06
-1.24381e-07
1.61815e-06
-1.13639e-07
1.72135e-06
-1.03204e-07
1.8145e-06
-9.31452e-08
1.89801e-06
-8.35129e-08
1.97236e-06
-7.43451e-08
2.03804e-06
-6.56819e-08
2.09558e-06
-5.75457e-08
2.14554e-06
-4.99566e-08
2.18846e-06
-4.29227e-08
2.22489e-06
-3.64288e-08
2.25537e-06
-3.04791e-08
2.28044e-06
-2.50652e-08
2.30059e-06
-2.01539e-08
2.31632e-06
-1.5725e-08
2.32809e-06
-1.17707e-08
2.33632e-06
-8.23414e-09
2.34139e-06
-5.07493e-09
2.34371e-06
-2.31943e-09
2.34366e-06
5.89585e-11
2.34155e-06
2.10553e-09
2.33765e-06
3.90209e-09
2.33218e-06
5.46516e-09
2.32537e-06
6.8115e-09
2.31739e-06
7.97784e-09
2.30843e-06
8.9671e-09
2.29861e-06
9.81136e-09
2.28808e-06
1.05389e-08
2.27694e-06
1.11312e-08
2.26531e-06
1.16298e-08
2.25324e-06
1.20736e-08
2.24079e-06
1.24507e-08
2.22806e-06
1.27341e-08
2.2151e-06
1.29523e-08
2.20198e-06
1.31222e-08
2.18874e-06
1.3245e-08
2.17541e-06
1.33241e-08
2.16204e-06
1.3372e-08
2.14864e-06
1.34009e-08
2.13524e-06
1.34049e-08
2.12185e-06
1.33833e-08
2.1085e-06
1.33489e-08
2.0952e-06
1.33056e-08
2.08194e-06
1.32525e-08
2.06876e-06
1.31873e-08
2.05565e-06
1.31113e-08
2.04262e-06
1.30292e-08
2.02967e-06
1.29443e-08
2.01682e-06
1.28558e-08
2.00405e-06
1.2763e-08
1.99139e-06
1.2668e-08
1.97881e-06
1.2574e-08
1.96633e-06
1.24818e-08
1.95394e-06
1.23894e-08
1.94165e-06
1.22949e-08
1.92945e-06
1.21989e-08
1.91734e-06
1.21042e-08
1.90533e-06
1.20127e-08
1.89341e-06
1.19242e-08
1.88157e-06
1.18362e-08
1.86982e-06
1.17468e-08
1.85817e-06
1.16572e-08
1.8466e-06
1.15694e-08
1.83511e-06
1.1485e-08
1.82371e-06
1.14034e-08
1.81239e-06
1.13227e-08
1.80114e-06
1.12418e-08
1.78998e-06
1.1161e-08
1.7789e-06
1.10815e-08
1.7679e-06
1.10041e-08
1.75697e-06
1.09289e-08
1.74611e-06
1.08558e-08
1.73533e-06
1.07846e-08
1.72461e-06
1.07147e-08
1.71397e-06
1.06461e-08
1.70339e-06
1.05779e-08
1.69288e-06
1.05099e-08
1.68244e-06
1.04428e-08
1.67206e-06
1.03777e-08
1.66174e-06
1.03154e-08
1.65149e-06
1.02553e-08
1.64129e-06
1.01958e-08
1.63116e-06
1.01353e-08
1.62108e-06
1.00739e-08
1.61107e-06
1.00133e-08
1.60111e-06
9.95595e-09
1.59121e-06
9.90257e-09
1.58136e-06
9.85123e-09
1.57156e-06
9.79976e-09
1.56181e-06
9.74723e-09
1.55212e-06
9.6949e-09
1.54247e-06
9.64502e-09
1.53287e-06
9.59966e-09
1.52331e-06
9.55961e-09
1.51379e-06
9.52287e-09
1.5043e-06
9.48923e-09
1.49485e-06
9.45546e-09
1.48541e-06
9.43283e-09
1.47601e-06
9.40332e-09
1.4666e-06
9.41353e-09
1.45722e-06
9.37568e-09
1.44775e-06
9.47186e-09
1.4384e-06
9.35284e-09
1.4287e-06
9.69579e-09
1.41945e-06
9.25283e-09
1.40915e-06
1.02946e-08
1.40026e-06
8.89128e-09
1.38865e-06
1.16139e-08
1.38055e-06
8.10005e-09
1.36668e-06
1.38652e-08
1.35943e-06
7.2481e-09
1.34284e-06
1.65979e-08
1.3352e-06
7.63164e-09
1.31612e-06
1.90886e-08
1.30593e-06
1.01911e-08
1.2829e-06
2.30221e-08
1.26944e-06
1.34591e-08
1.23607e-06
3.3373e-08
1.21857e-06
1.75033e-08
1.16471e-06
5.38529e-08
1.13793e-06
2.67804e-08
1.03517e-06
1.02759e-07
3.33295e-08
1.00185e-06
-1.3377e-07
2.63726e-07
-2.88561e-07
2.98105e-07
-4.43791e-07
2.98623e-07
-6.00228e-07
3.01092e-07
-7.59441e-07
3.04608e-07
-9.20741e-07
3.07691e-07
-1.08447e-06
3.11222e-07
-1.25073e-06
3.15094e-07
-1.41909e-06
3.18847e-07
-1.58923e-06
3.22516e-07
-1.76082e-06
3.25954e-07
-1.93335e-06
3.28867e-07
-2.1063e-06
3.31048e-07
-2.279e-06
3.32098e-07
-2.45056e-06
3.31639e-07
-2.62002e-06
3.29345e-07
-2.78611e-06
3.24694e-07
-2.94752e-06
3.1738e-07
-3.10266e-06
3.06911e-07
-3.24987e-06
2.93004e-07
-3.38716e-06
2.75201e-07
-3.5125e-06
2.53293e-07
-3.62374e-06
2.27005e-07
-3.71865e-06
1.96282e-07
-3.79499e-06
1.61078e-07
-3.85065e-06
1.2164e-07
-3.88367e-06
7.81841e-08
-3.89241e-06
3.14366e-08
-3.87444e-06
-1.93217e-08
-3.82949e-06
-7.24033e-08
-3.75684e-06
-1.26255e-07
-3.65654e-06
-1.80002e-07
-3.52931e-06
-2.32357e-07
-3.37657e-06
-2.82179e-07
-3.20014e-06
-3.28562e-07
-3.00209e-06
-3.70914e-07
-2.78511e-06
-4.0816e-07
-2.55167e-06
-4.40429e-07
-2.30467e-06
-4.67038e-07
-2.047e-06
-4.88156e-07
-1.78124e-06
-5.0378e-07
-1.51008e-06
-5.14083e-07
-1.23591e-06
-5.19577e-07
-9.60821e-07
-5.20532e-07
-6.86327e-07
-5.17754e-07
-4.14571e-07
-5.11246e-07
-1.46293e-07
-5.01946e-07
1.16877e-07
-4.89947e-07
3.73915e-07
-4.75994e-07
6.23696e-07
-4.60393e-07
8.66191e-07
-4.43308e-07
1.1008e-06
-4.25107e-07
1.32709e-06
-4.06075e-07
1.54474e-06
-3.86453e-07
1.75353e-06
-3.66449e-07
1.95331e-06
-3.46251e-07
2.14398e-06
-3.26027e-07
2.32553e-06
-3.05925e-07
2.49797e-06
-2.86079e-07
2.66137e-06
-2.66611e-07
2.81586e-06
-2.47631e-07
2.96158e-06
-2.29231e-07
3.09871e-06
-2.1148e-07
3.22748e-06
-1.94451e-07
3.34812e-06
-1.78186e-07
3.46089e-06
-1.62723e-07
3.56607e-06
-1.48102e-07
3.66394e-06
-1.34303e-07
3.75481e-06
-1.21349e-07
3.83899e-06
-1.09241e-07
3.91677e-06
-9.7936e-08
3.98848e-06
-8.74351e-08
4.05443e-06
-7.77171e-08
4.11491e-06
-6.87193e-08
4.17027e-06
-6.0428e-08
4.22078e-06
-5.2833e-08
4.2667e-06
-4.58657e-08
4.3083e-06
-3.94893e-08
4.34585e-06
-3.36481e-08
4.37961e-06
-2.83001e-08
4.40985e-06
-2.34195e-08
4.43677e-06
-1.89507e-08
4.46063e-06
-1.48871e-08
4.48162e-06
-1.11837e-08
4.49996e-06
-7.79622e-09
4.51583e-06
-4.74272e-09
4.52943e-06
-1.96421e-09
4.5409e-06
5.98027e-10
4.55037e-06
2.98436e-09
4.55801e-06
5.0878e-09
4.56396e-06
7.01147e-09
4.56831e-06
8.76252e-09
4.57122e-06
1.03367e-08
4.5728e-06
1.17497e-08
4.57313e-06
1.30414e-08
4.57231e-06
1.42239e-08
4.57042e-06
1.52922e-08
4.56754e-06
1.6257e-08
4.56375e-06
1.71388e-08
4.55912e-06
1.79419e-08
4.55369e-06
1.86778e-08
4.54753e-06
1.93456e-08
4.5407e-06
1.99481e-08
4.53323e-06
2.04953e-08
4.52518e-06
2.09968e-08
4.51658e-06
2.14552e-08
4.50747e-06
2.18706e-08
4.49789e-06
2.22475e-08
4.48787e-06
2.2593e-08
4.47744e-06
2.2911e-08
4.46663e-06
2.32025e-08
4.45546e-06
2.34671e-08
4.44395e-06
2.37071e-08
4.43213e-06
2.39267e-08
4.42001e-06
2.41298e-08
4.40762e-06
2.4318e-08
4.39496e-06
2.44902e-08
4.38207e-06
2.46454e-08
4.36894e-06
2.47859e-08
4.35559e-06
2.49155e-08
4.34204e-06
2.5037e-08
4.32829e-06
2.51502e-08
4.31436e-06
2.52538e-08
4.30026e-06
2.53468e-08
4.28599e-06
2.54309e-08
4.27156e-06
2.55091e-08
4.25698e-06
2.55832e-08
4.24225e-06
2.56536e-08
4.22739e-06
2.57198e-08
4.21239e-06
2.57814e-08
4.19727e-06
2.58387e-08
4.18202e-06
2.58925e-08
4.16666e-06
2.5943e-08
4.15118e-06
2.59902e-08
4.13559e-06
2.60345e-08
4.11989e-06
2.60771e-08
4.10408e-06
2.61194e-08
4.08818e-06
2.61613e-08
4.07217e-06
2.62013e-08
4.05607e-06
2.62374e-08
4.03987e-06
2.62696e-08
4.02359e-06
2.63002e-08
4.00721e-06
2.63328e-08
3.99074e-06
2.63691e-08
3.97419e-06
2.64065e-08
3.95755e-06
2.64419e-08
3.94082e-06
2.64741e-08
3.92401e-06
2.65049e-08
3.90712e-06
2.65382e-08
3.89014e-06
2.65774e-08
3.87307e-06
2.66244e-08
3.85592e-06
2.66764e-08
3.83868e-06
2.67329e-08
3.82134e-06
2.67905e-08
3.80391e-06
2.68638e-08
3.78638e-06
2.6936e-08
3.76874e-06
2.70548e-08
3.75096e-06
2.71473e-08
3.73308e-06
2.73598e-08
3.71499e-06
2.74381e-08
3.6968e-06
2.78858e-08
3.6783e-06
2.77534e-08
3.65964e-06
2.89573e-08
3.64074e-06
2.77871e-08
3.62095e-06
3.14017e-08
3.60229e-06
2.67603e-08
3.57955e-06
3.66066e-08
3.56276e-06
2.40361e-08
3.53417e-06
4.51923e-08
3.52039e-06
2.14152e-08
3.48432e-06
5.51509e-08
3.47107e-06
2.34484e-08
3.42791e-06
6.6183e-08
3.41097e-06
3.03954e-08
3.35599e-06
8.83495e-08
3.33431e-06
3.91849e-08
3.25679e-06
1.31374e-07
3.2164e-06
6.71715e-08
3.10984e-06
2.09317e-07
1.53317e-07
2.98985e-06
-1.28816e-07
3.92542e-07
-2.80671e-07
4.4996e-07
-4.34131e-07
4.52083e-07
-5.96405e-07
4.63366e-07
-7.58783e-07
4.66985e-07
-9.25068e-07
4.73977e-07
-1.09389e-06
4.80046e-07
-1.26371e-06
4.84908e-07
-1.43579e-06
4.90927e-07
-1.61023e-06
4.96964e-07
-1.78655e-06
5.02272e-07
-1.96463e-06
5.06943e-07
-2.14382e-06
5.10235e-07
-2.32325e-06
5.11532e-07
-2.50234e-06
5.10731e-07
-2.67987e-06
5.06872e-07
-2.85487e-06
4.99698e-07
-3.02571e-06
4.88214e-07
-3.19109e-06
4.72293e-07
-3.34881e-06
4.50727e-07
-3.49712e-06
4.23514e-07
-3.63361e-06
3.89778e-07
-3.75598e-06
3.49374e-07
-3.8616e-06
3.01904e-07
-3.94797e-06
2.47449e-07
-4.01253e-06
1.86199e-07
-4.053e-06
1.18659e-07
-4.06753e-06
4.5967e-08
-4.05346e-06
-3.33928e-08
-4.00867e-06
-1.17196e-07
-3.9333e-06
-2.01623e-07
-3.82768e-06
-2.85621e-07
-3.69256e-06
-3.67479e-07
-3.52998e-06
-4.44758e-07
-3.34217e-06
-5.16376e-07
-3.13137e-06
-5.81706e-07
-2.90142e-06
-6.38118e-07
-2.65491e-06
-6.86935e-07
-2.39551e-06
-7.26442e-07
-2.12617e-06
-7.57488e-07
-1.85009e-06
-7.79863e-07
-1.56961e-06
-7.94565e-07
-1.2874e-06
-8.01784e-07
-1.00566e-06
-8.02271e-07
-7.26149e-07
-7.97266e-07
-4.503e-07
-7.87095e-07
-1.79204e-07
-7.73042e-07
8.58486e-08
-7.55e-07
3.44463e-07
-7.34608e-07
5.95902e-07
-7.11832e-07
8.39786e-07
-6.87192e-07
1.0758e-06
-6.61122e-07
1.30372e-06
-6.33994e-07
1.5234e-06
-6.06128e-07
1.73474e-06
-5.77796e-07
1.93773e-06
-5.49243e-07
2.13239e-06
-5.20684e-07
2.31878e-06
-4.92315e-07
2.49701e-06
-4.64308e-07
2.66721e-06
-4.36814e-07
2.82954e-06
-4.09961e-07
2.98418e-06
-3.83869e-07
3.13133e-06
-3.58629e-07
3.2712e-06
-3.34318e-07
3.40401e-06
-3.10995e-07
3.52998e-06
-2.88692e-07
3.64932e-06
-2.67451e-07
3.7623e-06
-2.47276e-07
3.86911e-06
-2.28163e-07
3.96999e-06
-2.10123e-07
4.06517e-06
-1.93118e-07
4.15487e-06
-1.77132e-07
4.2393e-06
-1.62149e-07
4.3187e-06
-1.48114e-07
4.39326e-06
-1.34991e-07
4.46319e-06
-1.22758e-07
4.52868e-06
-1.11358e-07
4.58993e-06
-1.00742e-07
4.64716e-06
-9.08719e-08
4.70055e-06
-8.169e-08
4.75029e-06
-7.31603e-08
4.79657e-06
-6.52364e-08
4.83956e-06
-5.78765e-08
4.87943e-06
-5.10509e-08
4.91636e-06
-4.47234e-08
4.95049e-06
-3.88751e-08
4.98196e-06
-3.34357e-08
5.01093e-06
-2.83698e-08
5.03757e-06
-2.36584e-08
5.06197e-06
-1.93159e-08
5.08429e-06
-1.53011e-08
5.10463e-06
-1.15839e-08
5.12312e-06
-8.14815e-09
5.13984e-06
-4.97365e-09
5.15492e-06
-2.03646e-09
5.16844e-06
7.03324e-10
5.18049e-06
3.23843e-09
5.19118e-06
5.57162e-09
5.20058e-06
7.73651e-09
5.20877e-06
9.74886e-09
5.21582e-06
1.16323e-08
5.22179e-06
1.33719e-08
5.22676e-06
1.49772e-08
5.2308e-06
1.64644e-08
5.23394e-06
1.78494e-08
5.23626e-06
1.91375e-08
5.2378e-06
2.03323e-08
5.2386e-06
2.14415e-08
5.23872e-06
2.24741e-08
5.2382e-06
2.34369e-08
5.23707e-06
2.43347e-08
5.23536e-06
2.51715e-08
5.23312e-06
2.59511e-08
5.23037e-06
2.66778e-08
5.22714e-06
2.73568e-08
5.22346e-06
2.79921e-08
5.21937e-06
2.85867e-08
5.21487e-06
2.91426e-08
5.20999e-06
2.96632e-08
5.20476e-06
3.0152e-08
5.19918e-06
3.06119e-08
5.19329e-06
3.10444e-08
5.18709e-06
3.14507e-08
5.18061e-06
3.18324e-08
5.17384e-06
3.21928e-08
5.16682e-06
3.25355e-08
5.15954e-06
3.28624e-08
5.15202e-06
3.31738e-08
5.14427e-06
3.347e-08
5.1363e-06
3.37514e-08
5.12812e-06
3.402e-08
5.11973e-06
3.42779e-08
5.11115e-06
3.45268e-08
5.10237e-06
3.47669e-08
5.09341e-06
3.49987e-08
5.08426e-06
3.52228e-08
5.07494e-06
3.54411e-08
5.06545e-06
3.56544e-08
5.05578e-06
3.58624e-08
5.04596e-06
3.60641e-08
5.03597e-06
3.62597e-08
5.02582e-06
3.64516e-08
5.01551e-06
3.66437e-08
5.00504e-06
3.68372e-08
4.99441e-06
3.70299e-08
4.98364e-06
3.72195e-08
4.9727e-06
3.74056e-08
4.96162e-06
3.75907e-08
4.95038e-06
3.77793e-08
4.93898e-06
3.7975e-08
4.92742e-06
3.81803e-08
4.91571e-06
3.83909e-08
4.90383e-06
3.86101e-08
4.89179e-06
3.88308e-08
4.87958e-06
3.90776e-08
4.86719e-06
3.93221e-08
4.85462e-06
3.9632e-08
4.84185e-06
3.99131e-08
4.82887e-06
4.03405e-08
4.81567e-06
4.06322e-08
4.80221e-06
4.13483e-08
4.78856e-06
4.14069e-08
4.77436e-06
4.31513e-08
4.76045e-06
4.17053e-08
4.74467e-06
4.71776e-08
4.73143e-06
4.00009e-08
4.71203e-06
5.6003e-08
4.70136e-06
3.47075e-08
4.67559e-06
7.09682e-08
4.66831e-06
2.86873e-08
4.63593e-06
8.7532e-08
4.62774e-06
3.16372e-08
4.59298e-06
1.00948e-07
4.57612e-06
4.7252e-08
4.54014e-06
1.2433e-07
4.50886e-06
7.04719e-08
4.46672e-06
1.73504e-07
4.40902e-06
1.2488e-07
4.3574e-06
2.60937e-07
2.63342e-07
4.24737e-06
-1.16994e-07
5.09537e-07
-2.82628e-07
6.15593e-07
-4.49825e-07
6.19281e-07
-6.01276e-07
6.14816e-07
-7.61631e-07
6.27341e-07
-9.19633e-07
6.31979e-07
-1.08011e-06
6.4052e-07
-1.25154e-06
6.56339e-07
-1.42783e-06
6.67218e-07
-1.60674e-06
6.75877e-07
-1.78882e-06
6.84356e-07
-1.97242e-06
6.90533e-07
-2.1578e-06
6.95619e-07
-2.34541e-06
6.99139e-07
-2.53359e-06
6.98911e-07
-2.72205e-06
6.95334e-07
-2.90903e-06
6.86685e-07
-3.094e-06
6.73179e-07
-3.27411e-06
6.52406e-07
-3.44857e-06
6.25187e-07
-3.61396e-06
5.88902e-07
-3.76855e-06
5.44368e-07
-3.90871e-06
4.89539e-07
-4.03177e-06
4.24963e-07
-4.13416e-06
3.49832e-07
-4.21266e-06
2.64699e-07
-4.2642e-06
1.70197e-07
-4.28601e-06
6.77832e-08
-4.27501e-06
-4.43973e-08
-4.2289e-06
-1.63301e-07
-4.14751e-06
-2.83018e-07
-4.03095e-06
-4.02175e-07
-3.88028e-06
-5.18147e-07
-3.69862e-06
-6.26418e-07
-3.48927e-06
-7.25729e-07
-3.2545e-06
-8.16479e-07
-3.00016e-06
-8.92455e-07
-2.729e-06
-9.58097e-07
-2.44578e-06
-1.00966e-06
-2.15417e-06
-1.04911e-06
-1.85732e-06
-1.07671e-06
-1.55887e-06
-1.09302e-06
-1.26105e-06
-1.09961e-06
-9.6582e-07
-1.0975e-06
-6.75428e-07
-1.08766e-06
-3.90704e-07
-1.07182e-06
-1.13316e-07
-1.05043e-06
1.56983e-07
-1.0253e-06
4.19056e-07
-9.96681e-07
6.72626e-07
-9.65402e-07
9.17475e-07
-9.32041e-07
1.15346e-06
-8.97108e-07
1.3805e-06
-8.61038e-07
1.59858e-06
-8.24207e-07
1.80772e-06
-7.86934e-07
2.00799e-06
-7.49509e-07
2.19949e-06
-7.12189e-07
2.38239e-06
-6.75209e-07
2.55685e-06
-6.38773e-07
2.7231e-06
-6.0306e-07
2.88136e-06
-5.68225e-07
3.03189e-06
-5.34401e-07
3.17496e-06
-5.01698e-07
3.31084e-06
-4.70197e-07
3.4398e-06
-4.39957e-07
3.56212e-06
-4.11013e-07
3.67807e-06
-3.83394e-07
3.7879e-06
-3.5711e-07
3.89189e-06
-3.32149e-07
3.99026e-06
-3.08501e-07
4.08327e-06
-2.86127e-07
4.17115e-06
-2.65004e-07
4.2541e-06
-2.451e-07
4.33234e-06
-2.26361e-07
4.40609e-06
-2.0874e-07
4.47553e-06
-1.92199e-07
4.54086e-06
-1.76686e-07
4.60226e-06
-1.62138e-07
4.6599e-06
-1.48514e-07
4.71397e-06
-1.3576e-07
4.76463e-06
-1.2382e-07
4.81205e-06
-1.12659e-07
4.85639e-06
-1.02216e-07
4.8978e-06
-9.2458e-08
4.93643e-06
-8.33504e-08
4.97238e-06
-7.48315e-08
5.00583e-06
-6.68851e-08
5.03693e-06
-5.9466e-08
5.06578e-06
-5.25128e-08
5.0925e-06
-4.60281e-08
5.11719e-06
-3.99955e-08
5.13998e-06
-3.43702e-08
5.16095e-06
-2.91235e-08
5.18021e-06
-2.42307e-08
5.19784e-06
-1.96625e-08
5.21394e-06
-1.54014e-08
5.22861e-06
-1.14288e-08
5.24191e-06
-7.72658e-09
5.25392e-06
-4.27935e-09
5.26475e-06
-1.08427e-09
5.27444e-06
1.95094e-09
5.28304e-06
4.76356e-09
5.29064e-06
7.38268e-09
5.29728e-06
9.82284e-09
5.30302e-06
1.21046e-08
5.30793e-06
1.42348e-08
5.31204e-06
1.62212e-08
5.31541e-06
1.80749e-08
5.31807e-06
1.98063e-08
5.32009e-06
2.14247e-08
5.32148e-06
2.29387e-08
5.3223e-06
2.4356e-08
5.32257e-06
2.5682e-08
5.32232e-06
2.6921e-08
5.3216e-06
2.80791e-08
5.32043e-06
2.91637e-08
5.31883e-06
3.01816e-08
5.31684e-06
3.11383e-08
5.31446e-06
3.20374e-08
5.31173e-06
3.28815e-08
5.30867e-06
3.36727e-08
5.3053e-06
3.44152e-08
5.30164e-06
3.51139e-08
5.2977e-06
3.5774e-08