/*--------------------------------*- C++ -*----------------------------------*\
| =========                 |                                                 |
| \\      /  F ield         | OpenFOAM: The Open Source CFD Toolbox           |
|  \\    /   O peration     | Version:  2.1.x                                 |
|   \\  /    A nd           | Web:      www.OpenFOAM.org                      |
|    \\/     M anipulation  |                                                 |
\*---------------------------------------------------------------------------*/
FoamFile
{
    version     2.0;
    format      ascii;
    class       surfaceScalarField;
    location    "0.007";
    object      phi_0;
}
// * * * * * * * * * * * * * * * * * * * * * * * * * * * * * * * * * * * * * //

dimensions      [0 3 -1 0 0 0 0];

internalField   nonuniform List<scalar> 
24170
(
1.91308e-06
1.26089e-06
1.1586e-06
7.54474e-07
8.50439e-07
3.08164e-07
7.19472e-07
1.30967e-07
6.55403e-07
6.40693e-08
6.20066e-07
3.53366e-08
6.01476e-07
1.85903e-08
5.86107e-07
1.53687e-08
5.71509e-07
1.45983e-08
5.62683e-07
8.82574e-09
5.58028e-07
4.65543e-09
5.59835e-07
-1.80717e-09
5.61139e-07
-1.30429e-09
5.60516e-07
6.23061e-10
5.56337e-07
4.17909e-09
5.60154e-07
-3.8169e-09
5.64355e-07
-4.20089e-09
-3.30981e-08
5.97453e-07
3.36151e-06
1.28404e-06
2.89315e-06
1.22284e-06
2.53407e-06
6.6725e-07
2.27888e-06
3.86158e-07
2.09765e-06
2.45289e-07
1.97515e-06
1.5784e-07
1.89382e-06
9.99224e-08
1.8304e-06
7.87919e-08
1.78148e-06
6.3517e-08
1.74795e-06
4.23525e-08
1.72758e-06
2.50222e-08
1.71669e-06
9.0852e-09
1.70748e-06
7.90756e-09
1.6994e-06
8.70272e-09
1.68506e-06
1.85141e-08
1.68827e-06
-7.02025e-09
1.70633e-06
-2.22579e-08
-5.786e-08
1.73109e-06
4.1148e-06
1.14597e-06
4.02744e-06
1.3102e-06
3.86909e-06
8.25601e-07
3.69257e-06
5.6268e-07
3.52458e-06
4.13274e-07
3.38612e-06
2.96306e-07
3.27511e-06
2.10925e-07
3.18056e-06
1.73348e-07
3.10136e-06
1.42714e-07
3.04022e-06
1.03493e-07
2.99588e-06
6.93613e-08
2.96959e-06
3.53806e-08
2.94538e-06
3.21141e-08
2.92601e-06
2.80776e-08
2.90563e-06
3.88907e-08
2.90038e-06
-1.77186e-09
2.91795e-06
-3.98296e-08
-5.8669e-08
2.91876e-06
4.40739e-06
8.88541e-07
4.52924e-06
1.18835e-06
4.54256e-06
8.12283e-07
4.56364e-06
5.41598e-07
4.55918e-06
4.17728e-07
4.53858e-06
3.16913e-07
4.49579e-06
2.53712e-07
4.44042e-06
2.28717e-07
4.38374e-06
1.99399e-07
4.32726e-06
1.59973e-07
4.27282e-06
1.23793e-07
4.2363e-06
7.19031e-08
4.21494e-06
5.34762e-08
4.18567e-06
5.73479e-08
4.15428e-06
7.02833e-08
4.1461e-06
6.40477e-09
4.18088e-06
-7.46146e-08
-3.3175e-08
4.15539e-06
4.87942e-06
6.69782e-07
5.09797e-06
9.69798e-07
5.1672e-06
7.43056e-07
5.21688e-06
4.91919e-07
5.22127e-06
4.13333e-07
5.19839e-06
3.39801e-07
5.1633e-06
2.88799e-07
5.13781e-06
2.54206e-07
5.13539e-06
2.01816e-07
5.13713e-06
1.58238e-07
5.13725e-06
1.23675e-07
5.14676e-06
6.23852e-08
5.16792e-06
3.23159e-08
5.16076e-06
6.4512e-08
5.14144e-06
8.96019e-08
5.14528e-06
2.56393e-09
5.16433e-06
-9.36578e-08
-3.48825e-08
5.16603e-06
5.42306e-06
5.66297e-07
5.51085e-06
8.82008e-07
5.54441e-06
7.09495e-07
5.60707e-06
4.29259e-07
5.68305e-06
3.37358e-07
5.73147e-06
2.91376e-07
5.74844e-06
2.71833e-07
5.74284e-06
2.5981e-07
5.72516e-06
2.19487e-07
5.71049e-06
1.72918e-07
5.71652e-06
1.17642e-07
5.73457e-06
4.43307e-08
5.74366e-06
2.3226e-08
5.74623e-06
6.19473e-08
5.77981e-06
5.60203e-08
5.78797e-06
-5.59572e-09
5.73698e-06
-4.26669e-08
-3.65701e-08
5.73867e-06
5.77367e-06
4.4619e-07
5.95633e-06
6.9935e-07
6.05776e-06
6.08059e-07
6.07934e-06
4.07687e-07
6.11363e-06
3.03065e-07
6.14317e-06
2.61832e-07
6.16367e-06
2.51339e-07
6.16818e-06
2.5529e-07
6.1683e-06
2.19368e-07
6.17766e-06
1.63559e-07
6.19739e-06
9.79173e-08
6.20821e-06
3.35034e-08
6.21759e-06
1.38535e-08
6.2534e-06
2.61312e-08
6.27885e-06
3.0576e-08
6.23252e-06
4.07316e-08
6.20553e-06
-1.56776e-08
-1.05158e-07
6.27412e-06
4.53403e-06
3.03983e-07
4.63108e-06
6.02307e-07
4.66214e-06
5.76994e-07
4.64792e-06
4.2191e-07
4.65685e-06
2.94129e-07
4.68168e-06
2.37008e-07
4.71159e-06
2.21428e-07
4.74261e-06
2.24266e-07
4.77072e-06
1.91262e-07
4.78994e-06
1.44334e-07
4.78932e-06
9.85418e-08
4.77331e-06
4.95155e-08
4.76409e-06
2.30756e-08
4.75567e-06
3.45436e-08
4.7334e-06
5.28509e-08
4.73166e-06
4.2467e-08
4.77445e-06
-5.84672e-08
-1.37372e-07
4.80667e-06
5.16749e-06
2.03956e-07
5.30167e-06
4.68126e-07
5.37835e-06
5.00315e-07
5.40399e-06
3.96274e-07
5.40983e-06
2.88289e-07
5.42486e-06
2.21974e-07
5.45961e-06
1.86684e-07
5.50862e-06
1.75255e-07
5.54836e-06
1.51516e-07
5.5686e-06
1.24102e-07
5.56107e-06
1.06072e-07
5.53027e-06
8.03149e-08
5.49205e-06
6.1291e-08
5.46311e-06
6.34907e-08
5.47071e-06
4.52428e-08
5.49526e-06
1.79247e-08
5.48342e-06
-4.66335e-08
-1.60646e-07
5.5067e-06
6.18362e-06
2.26622e-07
6.19801e-06
4.53742e-07
6.25381e-06
4.44515e-07
6.28776e-06
3.62325e-07
6.28223e-06
2.93819e-07
6.26566e-06
2.3854e-07
6.26477e-06
1.87575e-07
6.28466e-06
1.5537e-07
6.31693e-06
1.19236e-07
6.34835e-06
9.26825e-08
6.3753e-06
7.91236e-08
6.39335e-06
6.22639e-08
6.40949e-06
4.51504e-08
6.42955e-06
4.3436e-08
6.44814e-06
2.66524e-08
6.46476e-06
1.30659e-09
6.47851e-06
-6.03822e-08
-1.82528e-07
6.50039e-06
7.00212e-06
7.92777e-08
7.18167e-06
2.74189e-07
7.26163e-06
3.64556e-07
7.28453e-06
3.39428e-07
7.30919e-06
2.69153e-07
7.36291e-06
1.84827e-07
7.43523e-06
1.15253e-07
7.49647e-06
9.41307e-08
7.5301e-06
8.56032e-08
7.54094e-06
8.1843e-08
7.54215e-06
7.79132e-08
7.53741e-06
6.70023e-08
7.53807e-06
4.44961e-08
7.55337e-06
2.81327e-08
7.57161e-06
8.40991e-09
7.60208e-06
-2.91585e-08
7.63689e-06
-9.5196e-08
-1.6062e-07
7.61498e-06
8.15143e-06
9.65069e-08
8.19029e-06
2.35336e-07
8.29714e-06
2.57701e-07
8.39767e-06
2.38896e-07
8.47194e-06
1.94888e-07
8.51531e-06
1.41456e-07
8.52631e-06
1.04249e-07
8.52066e-06
9.97778e-08
8.50722e-06
9.9049e-08
8.50572e-06
8.33396e-08
8.52805e-06
5.5587e-08
8.57164e-06
2.3415e-08
8.62799e-06
-1.18626e-08
8.69156e-06
-3.54292e-08
8.75658e-06
-5.66156e-08
8.79704e-06
-6.96185e-08
8.77585e-06
-7.40034e-08
-1.47442e-07
8.76267e-06
9.70574e-06
3.31167e-07
9.67786e-06
2.63213e-07
9.76165e-06
1.73912e-07
9.8628e-06
1.37747e-07
9.95347e-06
1.0422e-07
1.00111e-05
8.38071e-08
1.00252e-05
9.01936e-08
1.0017e-05
1.08001e-07
1.00099e-05
1.06098e-07
1.00195e-05
7.37681e-08
1.0042e-05
3.30328e-08
1.00722e-05
-6.71718e-09
1.01e-05
-3.97327e-08
1.01293e-05
-6.47045e-08
1.01524e-05
-7.97131e-08
1.01369e-05
-5.41196e-08
1.00866e-05
-2.37097e-08
-1.926e-07
1.01318e-05
1.13527e-05
2.05143e-07
1.13624e-05
2.53445e-07
1.13432e-05
1.93154e-07
1.13365e-05
1.44382e-07
1.13714e-05
6.93938e-08
1.1451e-05
4.19182e-09
1.15528e-05
-1.15782e-08
1.16509e-05
9.8566e-09
1.17164e-05
4.0549e-08
1.17396e-05
5.06152e-08
1.17236e-05
4.90781e-08
1.16792e-05
3.764e-08
1.1626e-05
1.34833e-08
1.15842e-05
-2.2924e-08
1.15575e-05
-5.30254e-08
1.15362e-05
-3.28194e-08
1.15376e-05
-2.50474e-08
-2.49766e-07
1.15947e-05
1.28028e-05
-5.7093e-08
1.30388e-05
1.74137e-08
1.32197e-05
1.22425e-08
1.33476e-05
1.64731e-08
1.33977e-05
1.93473e-08
1.33779e-05
2.39843e-08
1.33379e-05
2.84478e-08
1.33219e-05
2.58034e-08
1.33415e-05
2.09776e-08
1.33873e-05
4.75628e-09
1.3452e-05
-1.55941e-08
1.3523e-05
-3.33681e-08
1.35902e-05
-5.36759e-08
1.36374e-05
-7.01001e-08
1.36646e-05
-8.02369e-08
1.37257e-05
-9.3958e-08
1.37748e-05
-7.4094e-08
-6.60086e-08
1.3591e-05
1.525e-05
4.04567e-07
1.51483e-05
1.19056e-07
1.52076e-05
-4.70058e-08
1.52692e-05
-4.52052e-08
1.52659e-05
2.26987e-08
1.52324e-05
5.74405e-08
1.52284e-05
3.24389e-08
1.52811e-05
-2.68974e-08
1.53799e-05
-7.77766e-08
1.5494e-05
-1.09373e-07
1.56001e-05
-1.21629e-07
1.56877e-05
-1.20964e-07
1.57448e-05
-1.10818e-07
1.57654e-05
-9.06772e-08
1.57739e-05
-8.87529e-08
1.58146e-05
-1.34671e-07
1.58521e-05
-1.11641e-07
7.73114e-08
1.57088e-05
1.74925e-05
4.8136e-08
1.7581e-05
3.05127e-08
1.75646e-05
-3.05201e-08
1.75178e-05
1.55808e-09
1.74727e-05
6.7826e-08
1.74605e-05
6.96096e-08
1.75125e-05
-1.95883e-08
1.76317e-05
-1.4606e-07
1.78003e-05
-2.46375e-07
1.79866e-05
-2.95688e-07
1.81643e-05
-2.99316e-07
1.83081e-05
-2.64763e-07
1.84088e-05
-2.115e-07
1.84792e-05
-1.61085e-07
1.85127e-05
-1.22323e-07
1.84656e-05
-8.75192e-08
1.84431e-05
-8.91121e-08
-1.4833e-07
1.86687e-05
1.78545e-05
-1.17352e-07
1.79403e-05
-5.53334e-08
1.79647e-05
-5.49106e-08
1.80607e-05
-9.4407e-08
1.82267e-05
-9.82238e-08
1.83794e-05
-8.31191e-08
1.84395e-05
-7.96248e-08
1.84027e-05
-1.09256e-07
1.83202e-05
-1.63874e-07
1.82443e-05
-2.19785e-07
1.8204e-05
-2.59046e-07
1.82043e-05
-2.65077e-07
1.82373e-05
-2.44496e-07
1.82858e-05
-2.09555e-07
1.83262e-05
-1.62755e-07
1.83539e-05
-1.15204e-07
1.8364e-05
-9.92669e-08
-1.32997e-07
1.83487e-05
1.6009e-05
-6.67879e-08
1.59692e-05
-1.54784e-08
1.59329e-05
-1.85984e-08
1.59805e-05
-1.42017e-07
1.61185e-05
-2.36288e-07
1.6243e-05
-2.0753e-07
1.62934e-05
-1.30107e-07
1.62567e-05
-7.24694e-08
1.61647e-05
-7.19367e-08
1.60537e-05
-1.08754e-07
1.59597e-05
-1.65068e-07
1.5914e-05
-2.19351e-07
1.59217e-05
-2.52234e-07
1.59742e-05
-2.62016e-07
1.60623e-05
-2.50865e-07
1.61835e-05
-2.36442e-07
1.62887e-05
-2.04451e-07
-1.34323e-07
1.629e-05
1.40739e-05
-1.91343e-07
1.41881e-05
-1.29603e-07
1.43573e-05
-1.87873e-07
1.44509e-05
-2.35552e-07
1.44586e-05
-2.44049e-07
1.4463e-05
-2.11888e-07
1.45037e-05
-1.70864e-07
1.45815e-05
-1.50196e-07
1.46613e-05
-1.51778e-07
1.47113e-05
-1.5875e-07
1.47134e-05
-1.67159e-07
1.46716e-05
-1.776e-07
1.46068e-05
-1.87387e-07
1.45433e-05
-1.98507e-07
1.44965e-05
-2.04088e-07
1.44599e-05
-1.99857e-07
1.44533e-05
-1.97798e-07
-2.11791e-07
1.45307e-05
1.27912e-05
3.4224e-08
1.27551e-05
-9.34646e-08
1.28296e-05
-2.62369e-07
1.29495e-05
-3.5553e-07
1.30458e-05
-3.40362e-07
1.30997e-05
-2.65729e-07
1.3121e-05
-1.92218e-07
1.31289e-05
-1.58075e-07
1.3134e-05
-1.56883e-07
1.3145e-05
-1.69696e-07
1.31604e-05
-1.82562e-07
1.31716e-05
-1.8881e-07
1.31736e-05
-1.89437e-07
1.31646e-05
-1.89428e-07
1.31493e-05
-1.88846e-07
1.31397e-05
-1.90282e-07
1.31305e-05
-1.88545e-07
-1.79911e-07
1.30986e-05
1.11276e-05
-1.05395e-07
1.12459e-05
-2.11737e-07
1.12919e-05
-3.0843e-07
1.13217e-05
-3.85278e-07
1.13596e-05
-3.78256e-07
1.14179e-05
-3.2404e-07
1.14917e-05
-2.66027e-07
1.15768e-05
-2.43217e-07
1.16696e-05
-2.49626e-07
1.17644e-05
-2.64505e-07
1.1853e-05
-2.71165e-07
1.19257e-05
-2.61582e-07
1.19766e-05
-2.40252e-07
1.20025e-05
-2.15398e-07
1.20051e-05
-1.91441e-07
1.19876e-05
-1.72744e-07
1.19583e-05
-1.59279e-07
-1.50558e-07
1.1929e-05
1.00775e-05
-2.2676e-07
1.01429e-05
-2.77066e-07
1.02414e-05
-4.06912e-07
1.02863e-05
-4.30261e-07
1.02939e-05
-3.858e-07
1.03034e-05
-3.33597e-07
1.03484e-05
-3.11014e-07
1.04202e-05
-3.14983e-07
1.04903e-05
-3.19784e-07
1.05417e-05
-3.15851e-07
1.05708e-05
-3.00296e-07
1.05836e-05
-2.74359e-07
1.05871e-05
-2.43768e-07
1.05876e-05
-2.15914e-07
1.05904e-05
-1.94233e-07
1.05975e-05
-1.79784e-07
1.06097e-05
-1.7156e-07
-1.67431e-07
1.06266e-05
8.88209e-06
-4.13736e-07
9.14139e-06
-5.36364e-07
9.26689e-06
-5.32419e-07
9.30876e-06
-4.72129e-07
9.32438e-06
-4.01414e-07
9.35687e-06
-3.66091e-07
9.41672e-06
-3.70866e-07
9.473e-06
-3.71258e-07
9.50392e-06
-3.50705e-07
9.50749e-06
-3.19426e-07
9.49825e-06
-2.91053e-07
9.49354e-06
-2.69649e-07
9.50196e-06
-2.52185e-07
9.52489e-06
-2.38844e-07
9.55644e-06
-2.25784e-07
9.58812e-06
-2.11463e-07
9.61362e-06
-1.97062e-07
-1.80444e-07
9.62663e-06
7.99742e-06
-4.00068e-07
8.21584e-06
-7.54794e-07
8.4065e-06
-7.23074e-07
8.50186e-06
-5.67491e-07
8.51846e-06
-4.18016e-07
8.51998e-06
-3.67609e-07
8.52322e-06
-3.74101e-07
8.5323e-06
-3.80341e-07
8.54646e-06
-3.64863e-07
8.56515e-06
-3.38123e-07
8.58511e-06
-3.11013e-07
8.60324e-06
-2.87777e-07
8.61882e-06
-2.67758e-07
8.63086e-06
-2.50886e-07
8.64022e-06
-2.35147e-07
8.64839e-06
-2.1963e-07
8.65498e-06
-2.03654e-07
-1.86346e-07
8.66088e-06
7.29621e-06
-3.86839e-07
7.42485e-06
-8.8343e-07
7.568e-06
-8.66228e-07
7.64358e-06
-6.43067e-07
7.71231e-06
-4.86747e-07
7.77894e-06
-4.34242e-07
7.82066e-06
-4.15825e-07
7.82914e-06
-3.88817e-07
7.81311e-06
-3.48828e-07
7.78565e-06
-3.10665e-07
7.75704e-06
-2.82407e-07
7.73034e-06
-2.61079e-07
7.70583e-06
-2.43242e-07
7.68141e-06
-2.26469e-07
7.65539e-06
-2.09131e-07
7.62903e-06
-1.93265e-07
7.60442e-06
-1.79046e-07
-1.68061e-07
7.58614e-06
6.44345e-06
-4.24568e-07
6.6272e-06
-1.06718e-06
6.79245e-06
-1.03148e-06
6.89577e-06
-7.4639e-07
6.98034e-06
-5.71309e-07
7.02295e-06
-4.7686e-07
7.01538e-06
-4.0825e-07
6.96612e-06
-3.39562e-07
6.89542e-06
-2.7813e-07
6.82018e-06
-2.35419e-07
6.7518e-06
-2.14026e-07
6.6929e-06
-2.02183e-07
6.64414e-06
-1.94477e-07
6.60157e-06
-1.83904e-07
6.56447e-06
-1.72026e-07
6.52956e-06
-1.58354e-07
6.49686e-06
-1.46348e-07
-1.34787e-07
6.46359e-06
5.73248e-06
-7.62169e-07
5.96151e-06
-1.29621e-06
5.97883e-06
-1.0488e-06
5.9374e-06
-7.0496e-07
5.85013e-06
-4.84038e-07
5.7271e-06
-3.53839e-07
5.58649e-06
-2.67634e-07
5.44793e-06
-2.01006e-07
5.32297e-06
-1.53164e-07
5.21221e-06
-1.24663e-07
5.11124e-06
-1.13056e-07
5.01562e-06
-1.06559e-07
4.92391e-06
-1.02771e-07
4.83552e-06
-9.55146e-08
4.75399e-06
-9.04923e-08
4.67774e-06
-8.21117e-08
4.60956e-06
-7.81607e-08
-6.84928e-08
4.54326e-06
5.12536e-06
-9.89272e-07
4.86354e-06
-1.0344e-06
4.45027e-06
-6.35528e-07
4.09892e-06
-3.53604e-07
3.80547e-06
-1.90589e-07
3.5591e-06
-1.07467e-07
3.35781e-06
-6.63537e-08
3.20039e-06
-4.35797e-08
3.07751e-06
-3.02851e-08
2.97682e-06
-2.39717e-08
2.88722e-06
-2.34538e-08
2.80492e-06
-2.42684e-08
2.72781e-06
-2.56553e-08
2.65719e-06
-2.48964e-08
2.59213e-06
-2.54335e-08
2.53301e-06
-2.29908e-08
2.48238e-06
-2.75344e-08
-1.94522e-08
2.43334e-06
3.35688e-06
2.32248e-06
1.68695e-06
1.33335e-06
1.14276e-06
1.03529e-06
9.68941e-07
9.25361e-07
8.95076e-07
8.71104e-07
8.4765e-07
8.23382e-07
7.97727e-07
7.7283e-07
7.47397e-07
7.24406e-07
6.96872e-07
6.77419e-07
-1.3008e-07
1.3008e-07
-2.73498e-07
1.43418e-07
-4.16996e-07
1.43498e-07
-5.61751e-07
1.44755e-07
-7.07246e-07
1.45495e-07
-8.53729e-07
1.46483e-07
-1.0013e-06
1.47569e-07
-1.15019e-06
1.48894e-07
-1.30072e-06
1.50523e-07
-1.45309e-06
1.52373e-07
-1.60741e-06
1.54318e-07
-1.76365e-06
1.56246e-07
-1.9216e-06
1.57946e-07
-2.08079e-06
1.59187e-07
-2.24059e-06
1.59803e-07
-2.40013e-06
1.59545e-07
-2.55832e-06
1.58192e-07
-2.71381e-06
1.55488e-07
-2.86503e-06
1.51223e-07
-3.01021e-06
1.45171e-07
-3.14744e-06
1.37233e-07
-3.27465e-06
1.27209e-07
-3.38961e-06
1.14966e-07
-3.49015e-06
1.00539e-07
-3.57402e-06
8.38718e-08
-3.63912e-06
6.50954e-08
-3.6834e-06
4.42819e-08
-3.70523e-06
2.18302e-08
-3.70297e-06
-2.26578e-09
-3.67469e-06
-2.82721e-08
-3.62032e-06
-5.4369e-08
-3.53994e-06
-8.03827e-08
-3.43421e-06
-1.05727e-07
-3.30426e-06
-1.29958e-07
-3.15172e-06
-1.52535e-07
-2.97855e-06
-1.73168e-07
-2.78716e-06
-1.91395e-07
-2.58007e-06
-2.07089e-07
-2.36002e-06
-2.20047e-07
-2.12963e-06
-2.30393e-07
-1.89178e-06
-2.37851e-07
-1.64911e-06
-2.42666e-07
-1.40402e-06
-2.45089e-07
-1.15896e-06
-2.45058e-07
-9.16138e-07
-2.42826e-07
-6.77116e-07
-2.39022e-07
-4.43936e-07
-2.33179e-07
-2.17634e-07
-2.26303e-07
9.50056e-10
-2.18584e-07
2.10788e-07
-2.09838e-07
4.10925e-07
-2.00137e-07
6.00791e-07
-1.89865e-07
7.79968e-07
-1.79177e-07
9.48178e-07
-1.68209e-07
1.10527e-06
-1.57088e-07
1.25119e-06
-1.45928e-07
1.38603e-06
-1.34831e-07
1.50991e-06
-1.23884e-07
1.62308e-06
-1.13171e-07
1.72585e-06
-1.02766e-07
1.81858e-06
-9.27382e-08
1.90172e-06
-8.31375e-08
1.97572e-06
-7.40013e-08
2.04109e-06
-6.53693e-08
2.09836e-06
-5.72634e-08
2.14806e-06
-4.97036e-08
2.19076e-06
-4.26975e-08
2.22699e-06
-3.62296e-08
2.25729e-06
-3.03044e-08
2.2822e-06
-2.4913e-08
2.30223e-06
-2.00222e-08
2.31784e-06
-1.56121e-08
2.32951e-06
-1.16746e-08
2.33766e-06
-8.15252e-09
2.34267e-06
-5.00665e-09
2.34493e-06
-2.26359e-09
2.34483e-06
1.05113e-10
2.34269e-06
2.14302e-09
2.33875e-06
3.93269e-09
2.33326e-06
5.48974e-09
2.32643e-06
6.83115e-09
2.31844e-06
7.9933e-09
2.30946e-06
8.97895e-09
2.29964e-06
9.82053e-09
2.28909e-06
1.05457e-08
2.27796e-06
1.1136e-08
2.26633e-06
1.16337e-08
2.25425e-06
1.20769e-08
2.2418e-06
1.24527e-08
2.22906e-06
1.27353e-08
2.21611e-06
1.29531e-08
2.20298e-06
1.31228e-08
2.18974e-06
1.32456e-08
2.17641e-06
1.33248e-08
2.16304e-06
1.33729e-08
2.14964e-06
1.34021e-08
2.13623e-06
1.34062e-08
2.12285e-06
1.3385e-08
2.1095e-06
1.33511e-08
2.09619e-06
1.33084e-08
2.08293e-06
1.32557e-08
2.06974e-06
1.31907e-08
2.05663e-06
1.31151e-08
2.04359e-06
1.30334e-08
2.03064e-06
1.29489e-08
2.01778e-06
1.28609e-08
2.00501e-06
1.27685e-08
1.99234e-06
1.26739e-08
1.97976e-06
1.25803e-08
1.96727e-06
1.24885e-08
1.95488e-06
1.23964e-08
1.94257e-06
1.23022e-08
1.93037e-06
1.22065e-08
1.91826e-06
1.2112e-08
1.90623e-06
1.20208e-08
1.8943e-06
1.19326e-08
1.88246e-06
1.18448e-08
1.8707e-06
1.17557e-08
1.85904e-06
1.16662e-08
1.84746e-06
1.15786e-08
1.83596e-06
1.14943e-08
1.82455e-06
1.14128e-08
1.81322e-06
1.13324e-08
1.80197e-06
1.12517e-08
1.79079e-06
1.1171e-08
1.7797e-06
1.10916e-08
1.76869e-06
1.10143e-08
1.75775e-06
1.09391e-08
1.74688e-06
1.08661e-08
1.73609e-06
1.07949e-08
1.72536e-06
1.07252e-08
1.71471e-06
1.06567e-08
1.70412e-06
1.05885e-08
1.6936e-06
1.05206e-08
1.68314e-06
1.04535e-08
1.67276e-06
1.03884e-08
1.66243e-06
1.03261e-08
1.65216e-06
1.02661e-08
1.64196e-06
1.02066e-08
1.63181e-06
1.01461e-08
1.62173e-06
1.00846e-08
1.6117e-06
1.00239e-08
1.60174e-06
9.96658e-09
1.59182e-06
9.91319e-09
1.58196e-06
9.86184e-09
1.57215e-06
9.81034e-09
1.56239e-06
9.75775e-09
1.55269e-06
9.70536e-09
1.54303e-06
9.65541e-09
1.53342e-06
9.60997e-09
1.52385e-06
9.56983e-09
1.51432e-06
9.53303e-09
1.50482e-06
9.49928e-09
1.49535e-06
9.46552e-09
1.48591e-06
9.44271e-09
1.4765e-06
9.41333e-09
1.46707e-06
9.42299e-09
1.45769e-06
9.38577e-09
1.44821e-06
9.48034e-09
1.43885e-06
9.36372e-09
1.42914e-06
9.70202e-09
1.41988e-06
9.26631e-09
1.40958e-06
1.02962e-08
1.40067e-06
8.9099e-09
1.38906e-06
1.16088e-08
1.38094e-06
8.12321e-09
1.36708e-06
1.38577e-08
1.35981e-06
7.26606e-09
1.34321e-06
1.66014e-08
1.33558e-06
7.63105e-09
1.31647e-06
1.91086e-08
1.30629e-06
1.018e-08
1.28326e-06
2.30342e-08
1.26979e-06
1.3465e-08
1.23643e-06
3.33688e-08
1.21892e-06
1.7503e-08
1.16505e-06
5.38771e-08
1.13829e-06
2.67595e-08
1.03549e-06
1.02795e-07
3.33229e-08
1.00217e-06
-1.33841e-07
2.6392e-07
-2.88634e-07
2.98212e-07
-4.43871e-07
2.98734e-07
-6.00328e-07
3.01212e-07
-7.59534e-07
3.04702e-07
-9.20818e-07
3.07767e-07
-1.08451e-06
3.1126e-07
-1.25069e-06
3.1508e-07
-1.41895e-06
3.18778e-07
-1.58896e-06
3.2238e-07
-1.76038e-06
3.2574e-07
-1.9327e-06
3.28566e-07
-2.1054e-06
3.30648e-07
-2.2778e-06
3.31589e-07
-2.44901e-06
3.31013e-07
-2.61806e-06
3.28595e-07
-2.78369e-06
3.23817e-07
-2.94457e-06
3.16371e-07
-3.09912e-06
3.05771e-07
-3.24568e-06
2.91736e-07
-3.38226e-06
2.73812e-07
-3.50685e-06
2.51793e-07
-3.61729e-06
2.2541e-07
-3.71136e-06
1.94611e-07
-3.78685e-06
1.59353e-07
-3.84164e-06
1.19888e-07
-3.87379e-06
7.64333e-08
-3.88168e-06
2.9722e-08
-3.86291e-06
-2.10362e-08
-3.81717e-06
-7.40153e-08
-3.7438e-06
-1.2774e-07
-3.64285e-06
-1.81331e-07
-3.51506e-06
-2.33514e-07
-3.36187e-06
-2.83152e-07
-3.18507e-06
-3.29333e-07
-2.98676e-06
-3.71482e-07
-2.76962e-06
-4.08531e-07
-2.53611e-06
-4.406e-07
-2.28913e-06
-4.67023e-07
-2.03156e-06
-4.87962e-07
-1.76599e-06
-5.03422e-07
-1.49508e-06
-5.13576e-07
-1.22123e-06
-5.1894e-07
-9.4651e-07
-5.1978e-07
-6.72429e-07
-5.16908e-07
-4.01127e-07
-5.10324e-07
-1.3334e-07
-5.00967e-07
1.29284e-07
-4.88926e-07
3.85635e-07
-4.74935e-07
6.35038e-07
-4.59241e-07
8.77038e-07
-4.42137e-07
1.11111e-06
-4.23941e-07
1.33686e-06
-4.04925e-07
1.55398e-06
-3.85324e-07
1.76224e-06
-3.65347e-07
1.96149e-06
-3.45182e-07
2.15165e-06
-3.24996e-07
2.33271e-06
-3.04936e-07
2.50467e-06
-2.85137e-07
2.66762e-06
-2.65718e-07
2.82167e-06
-2.46789e-07
2.96698e-06
-2.28442e-07
3.10372e-06
-2.10743e-07
3.23212e-06
-1.93767e-07
3.35241e-06
-1.77554e-07
3.46485e-06
-1.62143e-07
3.56972e-06
-1.4757e-07
3.66731e-06
-1.33818e-07
3.75791e-06
-1.20909e-07
3.84184e-06
-1.08843e-07
3.9194e-06
-9.75773e-08
3.9909e-06
-8.71136e-08
4.05666e-06
-7.74294e-08
4.11697e-06
-6.84627e-08
4.17216e-06
-6.02008e-08
4.22253e-06
-5.26322e-08
4.26832e-06
-4.56884e-08
4.3098e-06
-3.93333e-08
4.34724e-06
-3.35112e-08
4.38091e-06
-2.81804e-08
4.41106e-06
-2.33152e-08
4.43791e-06
-1.886e-08
4.4617e-06
-1.48089e-08
4.48264e-06
-1.11162e-08
4.50092e-06
-7.73856e-09
4.51675e-06
-4.69395e-09
4.53031e-06
-1.92297e-09
4.54175e-06
6.35729e-10
4.55119e-06
3.01379e-09
4.55881e-06
5.11228e-09
4.56473e-06
7.03173e-09
4.56908e-06
8.77888e-09
4.57197e-06
1.03496e-08
4.57354e-06
1.17598e-08
4.57386e-06
1.30494e-08
4.57303e-06
1.423e-08
4.57114e-06
1.52964e-08
4.56827e-06
1.62598e-08
4.56448e-06
1.71407e-08
4.55984e-06
1.7943e-08
4.55442e-06
1.86782e-08
4.54827e-06
1.93453e-08
4.54143e-06
1.99473e-08
4.53397e-06
2.04942e-08
4.52593e-06
2.09955e-08
4.51733e-06
2.14538e-08
4.50823e-06
2.18691e-08
4.49866e-06
2.2246e-08
4.48865e-06
2.25916e-08
4.47823e-06
2.29098e-08
4.46742e-06
2.32015e-08
4.45626e-06
2.34662e-08
4.44476e-06
2.37064e-08
4.43295e-06
2.39262e-08
4.42084e-06
2.41296e-08
4.40845e-06
2.4318e-08
4.39581e-06
2.44905e-08
4.38292e-06
2.4646e-08
4.36979e-06
2.47868e-08
4.35646e-06
2.49166e-08
4.34291e-06
2.50384e-08
4.32917e-06
2.51519e-08
4.31525e-06
2.52557e-08
4.30115e-06
2.5349e-08
4.28689e-06
2.54335e-08
4.27247e-06
2.5512e-08
4.2579e-06
2.55863e-08
4.24318e-06
2.56569e-08
4.22832e-06
2.57233e-08
4.21333e-06
2.57852e-08
4.19822e-06
2.58428e-08
4.18297e-06
2.58969e-08
4.16762e-06
2.59476e-08
4.15214e-06
2.5995e-08
4.13656e-06
2.60396e-08
4.12086e-06
2.60823e-08
4.10506e-06
2.61248e-08
4.08916e-06
2.6167e-08
4.07316e-06
2.62072e-08
4.05706e-06
2.62435e-08
4.04087e-06
2.62758e-08
4.02459e-06
2.63065e-08
4.00822e-06
2.63393e-08
3.99175e-06
2.63758e-08
3.9752e-06
2.64134e-08
3.95856e-06
2.6449e-08
3.94184e-06
2.64813e-08
3.92503e-06
2.65122e-08
3.90814e-06
2.65456e-08
3.89117e-06
2.6585e-08
3.87411e-06
2.66321e-08
3.85695e-06
2.66843e-08
3.83971e-06
2.67408e-08
3.82238e-06
2.67986e-08
3.80495e-06
2.68719e-08
3.78742e-06
2.69444e-08
3.76978e-06
2.70629e-08
3.75201e-06
2.71561e-08
3.73412e-06
2.73672e-08
3.71604e-06
2.74478e-08
3.69785e-06
2.78911e-08
3.67935e-06
2.77666e-08
3.66069e-06
2.89558e-08
3.64179e-06
2.78104e-08
3.62201e-06
3.13846e-08
3.60334e-06
2.6802e-08
3.58062e-06
3.65693e-08
3.5638e-06
2.40886e-08
3.53524e-06
4.51583e-08
3.52144e-06
2.14381e-08
3.48538e-06
5.51627e-08
3.47214e-06
2.3418e-08
3.42896e-06
6.62158e-08
3.41205e-06
3.03773e-08
3.35708e-06
8.83392e-08
3.33541e-06
3.91776e-08
3.25788e-06
1.31405e-07
3.21754e-06
6.71007e-08
3.11094e-06
2.09388e-07
1.53346e-07
2.99092e-06
-1.28898e-07
3.92818e-07
-2.80857e-07
4.50171e-07
-4.34377e-07
4.52254e-07
-5.96596e-07
4.63431e-07
-7.58942e-07
4.67048e-07
-9.25146e-07
4.73971e-07
-1.09389e-06
4.80003e-07
-1.26364e-06
4.84834e-07
-1.43563e-06
4.90768e-07
-1.60996e-06
4.96707e-07
-1.78612e-06
5.01905e-07
-1.964e-06
5.06442e-07
-2.14295e-06
5.09595e-07
-2.3221e-06
5.10738e-07
-2.50085e-06
5.09766e-07
-2.67798e-06
5.05728e-07
-2.85253e-06
4.98364e-07
-3.02284e-06
4.86685e-07
-3.18764e-06
4.70564e-07
-3.34471e-06
4.48806e-07
-3.4923e-06
4.21402e-07
-3.628e-06
3.87499e-07
-3.74954e-06
3.46944e-07
-3.85428e-06
2.99356e-07
-3.93975e-06
2.44815e-07
-4.00338e-06
1.83525e-07
-4.04294e-06
1.15991e-07
-4.05659e-06
4.33721e-08
-4.04159e-06
-3.60373e-08
-3.99595e-06
-1.19654e-07
-3.91981e-06
-2.03877e-07
-3.81352e-06
-2.87621e-07
-3.67783e-06
-3.69211e-07
-3.51477e-06
-4.46212e-07
-3.32659e-06
-5.17506e-07
-3.11555e-06
-5.82522e-07
-2.88545e-06
-6.38636e-07
-2.63891e-06
-6.87139e-07
-2.37956e-06
-7.2637e-07
-2.11038e-06
-7.57146e-07
-1.83452e-06
-7.79278e-07
-1.55433e-06
-7.93765e-07
-1.27248e-06
-8.00791e-07
-9.9115e-07
-8.01114e-07
-7.12085e-07
-7.95972e-07
-4.36719e-07
-7.85691e-07
-1.66133e-07
-7.71552e-07
9.83836e-08
-7.53443e-07
3.5644e-07
-7.32992e-07
6.07367e-07
-7.10168e-07
8.50734e-07
-6.85505e-07
1.08622e-06
-6.59432e-07
1.31362e-06
-6.32317e-07
1.53277e-06
-6.04476e-07
1.7436e-06
-5.76181e-07
1.94609e-06
-5.47673e-07
2.14026e-06
-5.19167e-07
2.32619e-06
-4.90856e-07
2.50396e-06
-4.62913e-07
2.67373e-06
-4.35485e-07
2.83564e-06
-4.08703e-07
2.98988e-06
-3.82681e-07
3.13665e-06
-3.57512e-07
3.27616e-06
-3.33272e-07
3.40862e-06
-3.10019e-07
3.53426e-06
-2.87785e-07
3.6533e-06
-2.6661e-07
3.76598e-06
-2.46497e-07
3.87252e-06
-2.27445e-07
3.97314e-06
-2.09462e-07
4.06807e-06
-1.92511e-07
4.15753e-06
-1.76576e-07
4.24174e-06
-1.6164e-07
4.32093e-06
-1.4765e-07
4.3953e-06
-1.34567e-07
4.46504e-06
-1.22373e-07
4.53036e-06
-1.11008e-07
4.59145e-06
-1.00425e-07
4.64852e-06
-9.05839e-08
4.70177e-06
-8.14291e-08
4.75138e-06
-7.29244e-08
4.79754e-06
-6.50233e-08
4.84042e-06
-5.76843e-08
4.88018e-06
-5.08776e-08
4.91701e-06
-4.45676e-08
4.95105e-06
-3.87354e-08
4.98244e-06
-3.331e-08
5.01133e-06
-2.82561e-08
5.0379e-06
-2.35572e-08
5.06224e-06
-1.92258e-08
5.08449e-06
-1.52208e-08
5.10478e-06
-1.15124e-08
5.12322e-06
-8.08472e-09
5.13989e-06
-4.91738e-09
5.15493e-06
-1.9868e-09
5.16841e-06
7.47946e-10
5.18043e-06
3.27707e-09
5.19109e-06
5.60557e-09
5.20046e-06
7.7665e-09
5.20863e-06
9.77517e-09
5.21565e-06
1.16555e-08
5.2216e-06
1.33918e-08
5.22656e-06
1.49942e-08
5.23057e-06
1.64791e-08
5.23371e-06
1.7862e-08
5.23601e-06
1.91481e-08
5.23754e-06
2.03411e-08
5.23834e-06
2.14488e-08
5.23845e-06
2.248e-08
5.23792e-06
2.34418e-08
5.23678e-06
2.43385e-08
5.23507e-06
2.51744e-08
5.23282e-06
2.59531e-08
5.23007e-06
2.66791e-08
5.22684e-06
2.73573e-08
5.22317e-06
2.79921e-08
5.21907e-06
2.85862e-08
5.21458e-06
2.91417e-08
5.2097e-06
2.96619e-08
5.20447e-06
3.01504e-08
5.1989e-06
3.061e-08
5.19301e-06
3.10423e-08
5.18681e-06
3.14484e-08
5.18033e-06
3.18299e-08
5.17358e-06
3.21902e-08
5.16656e-06
3.25328e-08
5.15928e-06
3.28596e-08
5.15177e-06
3.31709e-08
5.14402e-06
3.34671e-08
5.13606e-06
3.37484e-08
5.12789e-06
3.4017e-08
5.11951e-06
3.4275e-08
5.11093e-06
3.45238e-08
5.10216e-06
3.47639e-08
5.09321e-06
3.49957e-08
5.08407e-06
3.52198e-08
5.07476e-06
3.54381e-08
5.06527e-06
3.56515e-08
5.05562e-06
3.58595e-08
5.0458e-06
3.60612e-08
5.03582e-06
3.62568e-08
5.02568e-06
3.64487e-08
5.01538e-06
3.66408e-08
5.00492e-06
3.68343e-08
4.99431e-06
3.7027e-08
4.98354e-06
3.72167e-08
4.97262e-06
3.74028e-08
4.96154e-06
3.75879e-08
4.95031e-06
3.77765e-08
4.93892e-06
3.79722e-08
4.92738e-06
3.81775e-08
4.91567e-06
3.83881e-08
4.90381e-06
3.86073e-08
4.89178e-06
3.8828e-08
4.87958e-06
3.90747e-08
4.8672e-06
3.93194e-08
4.85463e-06
3.96289e-08
4.84188e-06
3.99103e-08
4.82891e-06
4.03366e-08
4.81573e-06
4.06298e-08
4.80228e-06
4.1342e-08
4.78864e-06
4.14083e-08
4.77446e-06
4.31352e-08
4.76054e-06
4.17223e-08
4.74479e-06
4.71342e-08
4.73154e-06
4.0053e-08
4.7122e-06
5.59165e-08
4.70149e-06
3.47923e-08
4.67578e-06
7.08714e-08
4.66849e-06
2.87325e-08
4.63613e-06
8.75161e-08
4.62798e-06
3.15727e-08
4.59319e-06
1.01001e-07
4.57639e-06
4.71809e-08
4.54042e-06
1.24308e-07
4.50914e-06
7.04544e-08
4.46705e-06
1.73499e-07
4.40936e-06
1.2479e-07
4.35777e-06
2.60974e-07
2.6336e-07
4.24776e-06
-1.17121e-07
5.09939e-07
-2.82638e-07
6.15688e-07
-4.49756e-07
6.19372e-07
-6.01318e-07
6.14993e-07
-7.61736e-07
6.27466e-07
-9.19924e-07
6.32159e-07
-1.0805e-06
6.40584e-07
-1.25185e-06
6.5618e-07
-1.42804e-06
6.66961e-07
-1.60684e-06
6.75505e-07
-1.78878e-06
6.83845e-07
-1.97223e-06
6.8989e-07
-2.15742e-06
6.94781e-07
-2.34477e-06
6.9809e-07
-2.53265e-06
6.97644e-07
-2.72074e-06
6.93822e-07
-2.90729e-06
6.84912e-07
-3.09173e-06
6.71132e-07
-3.27125e-06
6.50082e-07
-3.44502e-06
6.22576e-07
-3.60965e-06
5.86026e-07
-3.76338e-06
5.4123e-07
-3.90262e-06
4.86187e-07
-4.02469e-06
4.21425e-07
-4.12604e-06
3.46169e-07
-4.20349e-06
2.60967e-07
-4.25397e-06
1.66471e-07
-4.27476e-06
6.41632e-08
-4.26272e-06
-4.80742e-08
-4.21565e-06
-1.66723e-07
-4.13338e-06
-2.86148e-07
-4.01609e-06
-4.04914e-07
-3.8648e-06
-5.205e-07
-3.68261e-06
-6.28395e-07
-3.4729e-06
-7.27219e-07
-3.2379e-06
-8.1752e-07
-2.98345e-06
-8.93091e-07
-2.71231e-06
-9.58282e-07
-2.42921e-06
-1.00947e-06
-2.13781e-06
-1.04854e-06
-1.84126e-06
-1.07582e-06
-1.54318e-06
-1.09184e-06
-1.2458e-06
-1.09818e-06
-9.5105e-07
-1.09586e-06
-6.61179e-07
-1.08584e-06
-3.77005e-07
-1.06987e-06
-1.00188e-07
-1.04837e-06
1.69542e-07
-1.02317e-06
4.31042e-07
-9.94492e-07
6.84045e-07
-9.63171e-07
9.2833e-07
-9.2979e-07
1.16376e-06
-8.94858e-07
1.39025e-06
-8.58809e-07
1.60778e-06
-8.22013e-07
1.81639e-06
-7.84791e-07
2.01615e-06
-7.47427e-07
2.20716e-06
-7.10178e-07
2.38958e-06
-6.73277e-07
2.56359e-06
-6.36926e-07
2.72941e-06
-6.01301e-07
2.88726e-06
-5.66557e-07
3.03741e-06
-5.32825e-07
3.18011e-06
-5.00214e-07
3.31564e-06
-4.68804e-07
3.44427e-06
-4.38652e-07
3.56628e-06
-4.09794e-07
3.68193e-06
-3.82259e-07
3.79149e-06
-3.56054e-07
3.89521e-06
-3.31168e-07
3.99334e-06
-3.07591e-07
4.08611e-06
-2.85285e-07
4.17376e-06
-2.64226e-07
4.25651e-06
-2.44381e-07
4.33455e-06
-2.25697e-07
4.40812e-06
-2.08129e-07
4.47738e-06
-1.91636e-07
4.54254e-06
-1.76169e-07
4.60378e-06
-1.61662e-07
4.66127e-06
-1.48077e-07
4.7152e-06
-1.35359e-07
4.76573e-06
-1.23452e-07
4.81303e-06
-1.12322e-07
4.85725e-06
-1.01906e-07
4.89854e-06
-9.21747e-08
4.93707e-06
-8.30911e-08
4.97293e-06
-7.45943e-08
5.00629e-06
-6.66685e-08
5.0373e-06
-5.92678e-08
5.06607e-06
-5.23318e-08
5.09271e-06
-4.58634e-08
5.11733e-06
-3.98456e-08
5.14006e-06
-3.42337e-08
5.16097e-06
-2.89993e-08
5.18017e-06
-2.41177e-08
5.19774e-06
-1.95599e-08
5.2138e-06
-1.53083e-08
5.22842e-06
-1.13445e-08
5.24168e-06
-7.6502e-09
5.25365e-06
-4.21021e-09
5.26445e-06
-1.02234e-09
5.2741e-06
2.00799e-09
5.28268e-06
4.81458e-09
5.29024e-06
7.42843e-09
5.29686e-06
9.864e-09
5.30258e-06
1.21416e-08
5.30746e-06
1.42678e-08
5.31155e-06
1.62507e-08
5.3149e-06
1.8101e-08
5.31755e-06
1.98296e-08
5.31954e-06
2.14453e-08
5.32092e-06
2.2957e-08
5.32173e-06
2.4372e-08
5.32198e-06
2.5696e-08
5.32173e-06
2.69331e-08
5.321e-06
2.80895e-08
5.31982e-06
2.91726e-08
5.31821e-06
3.01892e-08
5.31621e-06
3.11447e-08
5.31383e-06
3.20427e-08
5.31109e-06
3.28857e-08
5.30803e-06
3.36759e-08
5.30465e-06
3.44175e-08
5.30099e-06
3.51154e-08