/*--------------------------------*- C++ -*----------------------------------*\
| =========                 |                                                 |
| \\      /  F ield         | OpenFOAM: The Open Source CFD Toolbox           |
|  \\    /   O peration     | Version:  2.1.x                                 |
|   \\  /    A nd           | Web:      www.OpenFOAM.org                      |
|    \\/     M anipulation  |                                                 |
\*---------------------------------------------------------------------------*/
FoamFile
{
    version     2.0;
    format      ascii;
    class       volScalarField;
    location    "0.007";
    object      pMean;
}
// * * * * * * * * * * * * * * * * * * * * * * * * * * * * * * * * * * * * * //

dimensions      [0 2 -2 0 0 0 0];

internalField   nonuniform List<scalar> 
12225
(
154.349
138.176
131.69
129.745
128.597
127.466
126.18
124.837
123.363
121.879
120.242
118.579
116.643
114.578
112.104
108.799
105.025
96.6139
151.209
137.922
131.787
129.809
128.63
127.469
126.165
124.821
123.35
121.863
120.245
118.555
116.668
114.567
112.11
109.088
105.109
100.434
149.232
138.172
132.343
130.101
128.786
127.566
126.224
124.85
123.378
121.874
120.281
118.562
116.732
114.605
112.3
109.446
106.263
102.73
147.505
138.353
132.934
130.455
129.016
127.746
126.374
124.964
123.483
121.971
120.393
118.702
116.901
114.892
112.698
110.216
107.574
104.86
145.846
138.402
133.492
130.847
129.284
127.953
126.578
125.134
123.66
122.148
120.597
118.956
117.219
115.343
113.335
111.186
109.002
106.968
144.355
138.314
133.969
131.269
129.572
128.184
126.81
125.368
123.897
122.389
120.863
119.274
117.621
115.874
114.063
112.208
110.405
108.794
142.968
138.079
134.319
131.689
129.857
128.402
127.017
125.593
124.136
122.657
121.166
119.644
118.083
116.481
114.869
113.282
111.792
110.473
142.064
137.824
134.528
132.022
130.129
128.607
127.21
125.798
124.362
122.912
121.458
119.999
118.528
117.047
115.583
114.176
112.88
111.763
141.37
137.585
134.653
132.293
130.387
128.81
127.39
125.994
124.585
123.168
121.756
120.355
118.961
117.582
116.241
114.974
113.826
112.859
140.652
137.307
134.722
132.534
130.664
129.043
127.591
126.204
124.828
123.457
122.102
120.769
119.464
118.191
116.973
115.843
114.838
113.989
140.115
137.042
134.755
132.763
130.963
129.338
127.859
126.471
125.126
123.81
122.524
121.271
120.057
118.891
117.79
116.783
115.896
115.154
139.561
136.757
134.741
132.948
131.248
129.655
128.169
126.782
125.468
124.21
122.998
121.832
120.714
119.652
118.662
117.767
116.985
116.341
139.158
136.547
134.728
133.113
131.531
129.997
128.538
127.167
125.883
124.678
123.541
122.464
121.443
120.485
119.6
118.803
118.111
117.538
138.955
136.419
134.729
133.266
131.808
130.355
128.949
127.619
126.375
125.219
124.148
123.154
122.229
121.372
120.584
119.875
119.259
118.751
138.736
136.325
134.769
133.436
132.097
130.738
129.404
128.134
126.943
125.841
124.831
123.911
123.072
122.305
121.605
120.976
120.428
119.975
138.878
136.448
134.927
133.673
132.427
131.159
129.902
128.697
127.564
126.52
125.573
124.722
123.958
123.268
122.644
122.088
121.605
121.209
138.795
136.532
135.127
133.956
132.78
131.577
130.387
129.248
128.183
127.209
126.33
125.545
124.844
124.218
123.66
123.167
122.742
122.397
139.112
136.879
135.504
134.356
133.209
132.037
130.875
129.77
128.756
127.842
127.027
126.301
125.655
125.081
124.575
124.131
123.749
123.436
139.8
137.419
135.946
134.752
133.585
132.404
131.249
130.169
129.194
128.326
127.558
126.879
126.277
125.745
125.275
124.863
124.506
124.211
140.373
137.929
136.395
135.124
133.888
132.672
131.511
130.445
129.493
128.658
127.929
127.291
126.726
126.223
125.775
125.381
125.04
124.756
140.948
138.462
136.835
135.45
134.111
132.83
131.649
130.592
129.665
128.865
128.176
127.572
127.035
126.551
126.116
125.734
125.406
125.138
141.677
139.065
137.279
135.717
134.231
132.871
131.673
130.64
129.757
129.001
128.345
127.765
127.244
126.772
126.347
125.975
125.66
125.407
142.527
139.719
137.67
135.855
134.214
132.795
131.606
130.622
129.793
129.075
128.441
127.875
127.363
126.899
126.485
126.124
125.824
125.589
143.686
140.463
137.987
135.862
134.08
132.637
131.496
130.576
129.795
129.105
128.486
127.929
127.424
126.969
126.565
126.216
125.929
125.708
145.031
141.211
138.175
135.715
133.825
132.415
131.358
130.503
129.76
129.092
128.486
127.937
127.44
126.995
126.601
126.261
125.983
125.772
146.473
141.899
138.196
135.416
133.469
132.15
131.185
130.389
129.683
129.04
128.452
127.916
127.431
126.996
126.61
126.276
126
125.793
148.246
142.519
138.037
134.995
133.087
131.877
130.989
130.245
129.577
128.963
128.398
127.88
127.409
126.984
126.604
126.27
125.99
125.78
150.331
142.985
137.662
134.481
132.719
131.624
130.803
130.104
129.472
128.889
128.347
127.846
127.388
126.972
126.597
126.262
125.974
125.745
152.507
143.278
137.029
133.854
132.309
131.382
130.666
130.029
129.431
128.866
128.335
127.842
127.389
126.977
126.604
126.266
125.966
125.699
156.035
144.124
137.073
133.767
132.193
131.292
130.619
130.015
129.436
128.882
128.355
127.865
127.412
127.001
126.627
126.293
125.995
125.739
115.752
115.758
115.77
115.788
115.813
115.845
115.885
115.934
115.992
116.06
116.139
116.23
116.335
116.454
116.588
116.739
116.908
117.096
117.305
117.534
117.785
118.058
118.353
118.67
119.008
119.366
119.742
120.133
120.537
120.95
121.369
121.789
122.206
122.615
123.013
123.393
123.753
124.089
124.398
124.677
124.925
125.139
125.32
125.467
125.579
125.658
125.704
125.719
125.704
125.66
125.589
125.492
125.371
125.228
125.063
124.88
124.678
124.459
124.226
123.977
123.716
123.443
123.158
122.864
122.56
122.247
121.927
121.599
121.264
120.923
120.577
120.225
119.868
119.506
119.14
118.77
118.396
118.019
117.638
117.254
116.867
116.476
116.083
115.686
115.287
114.885
114.48
114.072
113.661
113.248
112.832
112.413
111.991
111.567
111.139
110.709
110.276
109.84
109.401
108.959
108.515
108.067
107.616
107.161
106.704
106.243
105.779
105.312
104.842
104.368
103.891
103.41
102.926
102.438
101.946
101.451
100.953
100.45
99.9441
99.4341
98.9203
98.4026
97.8809
97.3553
96.8257
96.292
95.7543
95.2124
94.6663
94.116
93.5615
93.0027
92.4396
91.8721
91.3002
90.7238
90.1429
89.5576
88.9676
88.3731
87.7739
87.17
86.5614
85.9481
85.3299
84.7069
84.079
83.4462
82.8085
82.1658
81.5181
80.8653
80.2074
79.5444
78.8763
78.2031
77.5247
76.8411
76.1523
75.4585
74.7594
74.0555
73.3464
72.6328
71.9141
71.1918
70.464
69.7348
68.9994
68.266
67.5259
66.7932
66.054
65.3313
64.603
63.9109
63.215
62.5975
62.0011
61.5526
115.652
115.659
115.67
115.688
115.713
115.745
115.785
115.834
115.891
115.959
116.038
116.129
116.232
116.35
116.484
116.635
116.803
116.991
117.2
117.43
117.682
117.957
118.254
118.575
118.917
119.279
119.66
120.057
120.467
120.887
121.313
121.74
122.164
122.58
122.984
123.37
123.736
124.077
124.39
124.673
124.923
125.14
125.322
125.47
125.583
125.662
125.709
125.723
125.708
125.663
125.591
125.494
125.372
125.228
125.063
124.879
124.676
124.457
124.223
123.974
123.712
123.438
123.153
122.858
122.554
122.241
121.92
121.592
121.258
120.917
120.57
120.218
119.861
119.5
119.134
118.765
118.391
118.014
117.633
117.249
116.862
116.472
116.078
115.682
115.283
114.881
114.476
114.068
113.658
113.245
112.829
112.41
111.988
111.564
111.137
110.707
110.274
109.838
109.399
108.957
108.512
108.065
107.614
107.159
106.702
106.242
105.778
105.311
104.84
104.367
103.889
103.409
102.924
102.437
101.945
101.45
100.952
100.449
99.943
99.4331
98.9193
98.4016
97.88
97.3544
96.8248
96.2912
95.7535
95.2116
94.6656
94.1153
93.5608
93.002
92.4389
91.8714
91.2995
90.7232
90.1424
89.557
88.9671
88.3726
87.7734
87.1695
86.561
85.9476
85.3295
84.7065
84.0786
83.4459
82.8081
82.1654
81.5177
80.8649
80.2071
79.5441
78.876
78.2028
77.5243
76.8408
76.152
75.4581
74.7591
74.0551
73.346
72.6324
71.9135
71.1913
70.4631
69.7341
68.998
68.2649
67.524
66.7909
66.0514
65.3263
64.5992
63.8994
63.2078
62.5652
61.9604
61.3982
115.449
115.455
115.466
115.483
115.508
115.539
115.579
115.626
115.683
115.75
115.828
115.917
116.02
116.136
116.269
116.418
116.586
116.773
116.982
117.212
117.466
117.744
118.045
118.37
118.719
119.089
119.479
119.887
120.309
120.742
121.181
121.622
122.06
122.49
122.906
123.305
123.681
124.032
124.353
124.643
124.899
125.12
125.306
125.456
125.571
125.651
125.698
125.712
125.697
125.652
125.58
125.482
125.359
125.215
125.049
124.864
124.661
124.442
124.207
123.958
123.696
123.422
123.137
122.842
122.538
122.226
121.905
121.577
121.243
120.903
120.557
120.205
119.849
119.488
119.123
118.754
118.38
118.004
117.623
117.24
116.853
116.463
116.07
115.674
115.275
114.874
114.469
114.062
113.652
113.239
112.823
112.405
111.983
111.559
111.132
110.702
110.27
109.834
109.395
108.954
108.509
108.061
107.61
107.156
106.699
106.239
105.775
105.308
104.838
104.364
103.887
103.406
102.922
102.434
101.943
101.448
100.949
100.447
99.9409
99.4309
98.9172
98.3995
97.878
97.3524
96.8229
96.2893
95.7516
95.2097
94.6637
94.1135
93.5591
93.0003
92.4372
91.8697
91.2979
90.7215
90.1407
89.5554
88.9655
88.371
87.7718
87.168
86.5594
85.9461
85.328
84.705
84.0772
83.4444
82.8067
82.164
81.5163
80.8635
80.2057
79.5427
78.8746
78.2014
77.5229
76.8393
76.1505
75.4566
74.7575
74.0535
73.3443
72.6306
71.9115
71.1892
70.4607
69.7313
68.995
68.2607
67.52
66.7841
66.0453
65.3144
64.5885
63.8763
63.1836
62.5093
61.88
61.235
115.134
115.14
115.151
115.168
115.192
115.222
115.261
115.307
115.362
115.426
115.502
115.589
115.689
115.803
115.932
116.079
116.245
116.431
116.639
116.871
117.126
117.408
117.715
118.048
118.406
118.789
119.193
119.617
120.058
120.511
120.971
121.433
121.893
122.343
122.78
123.197
123.591
123.957
124.291
124.592
124.857
125.086
125.277
125.431
125.549
125.631
125.679
125.695
125.679
125.635
125.562
125.464
125.342
125.197
125.031
124.845
124.642
124.422
124.187
123.938
123.676
123.402
123.118
122.823
122.519
122.207
121.887
121.56
121.226
120.886
120.54
120.19
119.834
119.474
119.109
118.74
118.368
117.992
117.612
117.229
116.843
116.453
116.061
115.665
115.267
114.866
114.462
114.055
113.645
113.232
112.817
112.399
111.978
111.554
111.127
110.698
110.265
109.829
109.391
108.95
108.505
108.057
107.607
107.153
106.696
106.235
105.772
105.305
104.835
104.361
103.884
103.404
102.92
102.432
101.941
101.446
100.947
100.445
99.9389
99.4291
98.9154
98.3978
97.8763
97.3508
96.8213
96.2877
95.75
95.2082
94.6622
94.1121
93.5576
92.9989
92.4358
91.8684
91.2965
90.7202
90.1395
89.5541
88.9643
88.3698
87.7706
87.1668
86.5583
85.945
85.3269
84.7039
84.0761
83.4433
82.8056
82.1629
81.5152
80.8624
80.2046
79.5416
78.8735
78.2002
77.5218
76.8381
76.1493
75.4553
74.7562
74.052
73.3427
72.6287
71.9095
71.1866
70.4583
69.7275
68.9917
68.2549
67.5149
66.775
66.0367
65.2994
64.5721
63.848
63.1453
62.4451
61.7778
61.0737
114.712
114.718
114.727
114.74
114.761
114.788
114.823
114.866
114.918
114.979
115.05
115.132
115.227
115.336
115.46
115.602
115.763
115.946
116.151
116.381
116.638
116.923
117.237
117.58
117.951
118.35
118.775
119.222
119.689
120.17
120.661
121.155
121.646
122.128
122.594
123.039
123.458
123.846
124.199
124.516
124.794
125.033
125.233
125.393
125.516
125.601
125.652
125.669
125.654
125.61
125.538
125.44
125.317
125.172
125.006
124.821
124.617
124.397
124.162
123.913
123.651
123.378
123.093
122.799
122.496
122.184
121.864
121.538
121.205
120.865
120.521
120.171
119.816
119.456
119.092
118.724
118.352
117.977
117.598
117.216
116.83
116.441
116.049
115.655
115.257
114.856
114.452
114.046
113.637
113.224
112.809
112.392
111.971
111.547
111.121
110.692
110.259
109.824
109.386
108.945
108.501
108.053
107.603
107.149
106.692
106.232
105.769
105.302
104.832
104.358
103.881
103.401
102.917
102.429
101.938
101.444
100.945
100.443
99.9369
99.4271
98.9134
98.3959
97.8744
97.349
96.8195
96.286
95.7484
95.2066
94.6607
94.1106
93.5562
92.9975
92.4344
91.867
91.2952
90.7189
90.1382
89.5529
88.963
88.3686
87.7694
87.1656
86.5571
85.9438
85.3257
84.7028
84.075
83.4422
82.8045
82.1618
81.5141
80.8613
80.2035
79.5405
78.8724
78.1991
77.5206
76.8369
76.148
75.454
74.7547
74.0504
73.3409
72.6267
71.9073
71.1837
70.4554
69.7233
68.9876
68.2485
67.5086
66.765
66.0256
65.2828
64.5506
63.8165
63.0994
62.378
61.672
60.9273
114.154
114.161
114.17
114.185
114.205
114.23
114.261
114.299
114.345
114.398
114.46
114.533
114.618
114.717
114.831
114.963
115.114
115.287
115.485
115.711
115.966
116.252
116.572
116.926
117.313
117.734
118.185
118.664
119.167
119.689
120.222
120.761
121.297
121.823
122.331
122.816
123.27
123.689
124.07
124.409
124.706
124.96
125.171
125.341
125.47
125.56
125.614
125.634
125.621
125.578
125.506
125.409
125.287
125.142
124.976
124.79
124.587
124.367
124.132
123.884
123.622
123.349
123.065
122.771
122.468
122.157
121.839
121.513
121.181
120.842
120.498
120.149
119.795
119.436
119.073
118.706
118.335
117.961
117.582
117.201
116.816
116.428
116.037
115.642
115.245
114.845
114.442
114.036
113.627
113.216
112.801
112.384
111.964
111.54
111.114
110.685
110.253
109.819
109.381
108.94
108.496
108.049
107.598
107.145
106.688
106.228
105.765
105.298
104.828
104.355
103.878
103.398
102.914
102.427
101.936
101.441
100.943
100.441
99.9347
99.425
98.9114
98.394
97.8726
97.3472
96.8178
96.2843
95.7467
95.205
94.6592
94.1091
93.5547
92.996
92.433
91.8656
91.2939
90.7176
90.1369
89.5516
88.9618
88.3673
87.7682
87.1644
86.5559
85.9427
85.3246
84.7017
84.0739
83.4411
82.8034
82.1607
81.513
80.8603
80.2024
79.5394
78.8713
78.1979
77.5194
76.8357
76.1467
75.4525
74.7532
74.0487
73.339
72.6244
71.9049
71.1807
70.452
69.7188
68.9826
68.2418
67.5006
66.7543
66.0118
65.2647
64.5251
63.7826
63.0488
62.3095
61.5691
60.7935
113.505
113.508
113.509
113.513
113.523
113.538
113.559
113.586
113.619
113.66
113.709
113.768
113.837
113.917
114.012
114.124
114.256
114.412
114.594
114.807
115.053
115.336
115.659
116.023
116.429
116.876
117.363
117.885
118.438
119.015
119.608
120.209
120.809
121.398
121.966
122.506
123.01
123.473
123.891
124.262
124.585
124.86
125.087
125.269
125.407
125.505
125.564
125.587
125.577
125.536
125.467
125.37
125.249
125.105
124.939
124.755
124.552
124.332
124.098
123.849
123.588
123.316
123.033
122.739
122.438
122.127
121.809
121.485
121.153
120.816
120.473
120.125
119.772
119.414
119.052
118.686
118.316
117.942
117.565
117.184
116.8
116.413
116.022
115.629
115.233
114.833
114.431
114.025
113.617
113.206
112.792
112.375
111.955
111.533
111.107
110.678
110.247
109.812
109.375
108.934
108.49
108.043
107.593
107.14
106.684
106.224
105.761
105.295
104.825
104.352
103.875
103.395
102.911
102.424
101.933
101.439
100.94
100.438
99.9325
99.4228
98.9094
98.392
97.8706
97.3453
96.8159
96.2825
95.745
95.2034
94.6576
94.1075
93.5532
92.9946
92.4316
91.8643
91.2925
90.7163
90.1356
89.5504
88.9606
88.3661
87.767
87.1633
86.5548
85.9416
85.3235
84.7006
84.0728
83.4401
82.8023
82.1597
81.512
80.8592
80.2013
79.5383
78.8701
78.1968
77.5182
76.8344
76.1453
75.4511
74.7516
74.0469
73.337
72.6221
71.9022
71.1773
70.4482
69.714
68.9769
68.2345
67.4913
66.7428
65.9961
65.245
64.4971
63.7464
62.9966
62.2398
61.4715
60.6703
112.667
112.672
112.675
112.683
112.694
112.702
112.712
112.725
112.742
112.763
112.786
112.813
112.851
112.899
112.961
113.038
113.135
113.256
113.406
113.59
113.815
114.084
114.403
114.774
115.2
115.68
116.212
116.791
117.412
118.067
118.746
119.437
120.129
120.807
121.462
122.081
122.655
123.18
123.651
124.065
124.423
124.726
124.975
125.174
125.325
125.432
125.498
125.528
125.522
125.485
125.418
125.324
125.204
125.061
124.897
124.713
124.51
124.292
124.058
123.81
123.55
123.278
122.996
122.704
122.403
122.094
121.777
121.453
121.123
120.787
120.445
120.098
119.746
119.39
119.029
118.664
118.295
117.922
117.546
117.166
116.783
116.397
116.007
115.614
115.219
114.82
114.418
114.014
113.606
113.196
112.782
112.366
111.946
111.524
111.099
110.671
110.24
109.806
109.368
108.928
108.485
108.038
107.588
107.135
106.679
106.22
105.757
105.291
104.821
104.348
103.872
103.392
102.908
102.421
101.93
101.436
100.938
100.436
99.9302
99.4206
98.9072
98.3899
97.8686
97.3434
96.8141
96.2808
95.7433
95.2018
94.656
94.106
93.5517
92.9931
92.4302
91.8629
91.2912
90.715
90.1344
89.5492
88.9594
88.3649
87.7659
87.1621
86.5537
85.9405
85.3224
84.6995
84.0717
83.439
82.8013
82.1586
81.5109
80.8581
80.2002
79.5372
78.869
78.1956
77.5169
76.8331
76.1439
75.4495
74.7499
74.045
73.3349
72.6196
71.8993
71.1738
70.444
69.7089
68.9706
68.2267
67.4812
66.7303
65.9791
65.2238
64.4676
63.7083
62.944
62.1707
61.3801
60.5571
111.773
111.772
111.754
111.734
111.715
111.701
111.689
111.674
111.656
111.64
111.627
111.618
111.61
111.606
111.608
111.624
111.659
111.718
111.808
111.937
112.115
112.349
112.648
113.018
113.463
113.984
114.579
115.242
115.965
116.734
117.536
118.356
119.179
119.987
120.765
121.498
122.174
122.786
123.33
123.804
124.21
124.551
124.83
125.051
125.219
125.34
125.417
125.454
125.454
125.422
125.359
125.268
125.15
125.009
124.847
124.664
124.463
124.245
124.013
123.766
123.507
123.236
122.955
122.664
122.364
122.056
121.741
121.419
121.09
120.755
120.415
120.069
119.718
119.363
119.003
118.64
118.272
117.9
117.525
117.146
116.764
116.379
115.99
115.599
115.204
114.806
114.405
114.001
113.594
113.184
112.771
112.356
111.937
111.515
111.091
110.663
110.232
109.798
109.362
108.922
108.479
108.032
107.583
107.13
106.674
106.215
105.753
105.287
104.817
104.344
103.868
103.388
102.905
102.418
101.927
101.433
100.935
100.433
99.9278
99.4184
98.9051
98.3878
97.8666
97.3414
96.8122
96.279
95.7416
95.2001
94.6544
94.1044
93.5502
92.9917
92.4288
91.8615
91.2899
90.7138
90.1331
89.5479
88.9582
88.3638
87.7647
87.161
86.5526
85.9394
85.3214
84.6985
84.0707
83.4379
82.8002
82.1576
81.5099
80.8571
80.1992
79.5361
78.8678
78.1944
77.5157
76.8317
76.1425
75.448
74.7481
74.043
73.3326
72.6169
71.8962
71.1701
70.4395
69.7035
68.9637
68.2184
67.4704
66.717
65.9613
65.2012
64.4374
63.669
62.8921
62.1035
61.2948
60.4534
110.655
110.653
110.629
110.603
110.574
110.537
110.494
110.446
110.388
110.32
110.24
110.149
110.053
109.959
109.867
109.781
109.708
109.655
109.634
109.658
109.741
109.9
110.151
110.508
110.977
111.563
112.257
113.049
113.918
114.846
115.821
116.825
117.838
118.836
119.796
120.696
121.52
122.258
122.905
123.463
123.936
124.328
124.647
124.898
125.088
125.226
125.316
125.364
125.373
125.347
125.289
125.202
125.088
124.95
124.789
124.609
124.409
124.193
123.962
123.716
123.459
123.189
122.91
122.62
122.322
122.016
121.702
121.381
121.054
120.72
120.382
120.037
119.688
119.334
118.976
118.614
118.247
117.877
117.503
117.125
116.744
116.36
115.972
115.582
115.188
114.791
114.391
113.987
113.581
113.172
112.76
112.345
111.927
111.506
111.082
110.654
110.224
109.791
109.354
108.915
108.472
108.026
107.577
107.125
106.669
106.21
105.748
105.282
104.813
104.341
103.865
103.385
102.902
102.415
101.924
101.43
100.932
100.431
99.9253
99.416
98.9028
98.3857
97.8646
97.3395
96.8104
96.2772
95.7399
95.1984
94.6528
94.1029
93.5487
92.9902
92.4274
91.8602
91.2886
90.7125
90.1319
89.5467
88.957
88.3626
87.7636
87.1599
86.5515
85.9383
85.3203
84.6974
84.0696
83.4369
82.7992
82.1566
81.5088
80.856
80.1981
79.535
78.8667
78.1932
77.5144
76.8304
76.141
75.4464
74.7464
74.041
73.3303
72.6142
71.893
71.1663
70.4348
69.6978
68.9566
68.2097
67.459
66.703
65.9429
65.178
64.4069
63.6296
62.8415
62.0392
61.2152
60.3585
109.456
109.445
109.404
109.344
109.265
109.173
109.071
108.955
108.818
108.662
108.488
108.297
108.084
107.846
107.59
107.328
107.072
106.829
106.613
106.447
106.363
106.393
106.568
106.908
107.424
108.114
108.965
109.952
111.047
112.227
113.466
114.74
116.02
117.278
118.483
119.612
120.643
121.559
122.354
123.028
123.591
124.052
124.422
124.712
124.932
125.091
125.198
125.258
125.278
125.26
125.209
125.127
125.017
124.883
124.725
124.546
124.349
124.134
123.905
123.661
123.405
123.138
122.86
122.572
122.276
121.971
121.659
121.34
121.015
120.683
120.346
120.004
119.656
119.304
118.947
118.586
118.221
117.852
117.479
117.103
116.723
116.34
115.953
115.564
115.171
114.775
114.375
113.973
113.568
113.159
112.748
112.334
111.916
111.496
111.072
110.645
110.216
109.783
109.347
108.908
108.465
108.02
107.571
107.119
106.664
106.205
105.743
105.278
104.809
104.337
103.861
103.381
102.898
102.412
101.921
101.427
100.93
100.428
99.9228
99.4136
98.9005
98.3835
97.8625
97.3375
96.8085
96.2754
95.7381
95.1967
94.6511
94.1013
93.5472
92.9887
92.426
91.8588
91.2873
90.7112
90.1306
89.5455
88.9558
88.3615
87.7625
87.1588
86.5504
85.9373
85.3193
84.6964
84.0686
83.4359
82.7982
82.1556
81.5078
80.855
80.197
79.5339
78.8655
78.192
77.5132
76.829
76.1396
75.4447
74.7445
74.0389
73.3279
72.6114
71.8897
71.1624
70.43
69.692
68.9492
68.2007
67.4474
66.6886
65.9243
65.1543
64.3765
63.5908
62.7926
61.9782
61.1413
60.2718
108.088
108.065
107.994
107.897
107.772
107.615
107.427
107.211
106.965
106.68
106.349
105.97
105.544
105.076
104.576
104.048
103.495
102.933
102.401
101.95
101.636
101.503
101.586
101.919
102.522
103.4
104.53
105.87
107.359
108.937
110.557
112.186
113.796
115.364
116.863
118.268
119.553
120.694
121.676
122.5
123.177
123.725
124.16
124.497
124.752
124.937
125.063
125.138
125.169
125.161
125.118
125.042
124.937
124.807
124.652
124.476
124.281
124.07
123.842
123.601
123.347
123.082
122.806
122.52
122.226
121.924
121.614
121.297
120.973
120.644
120.308
119.967
119.622
119.271
118.916
118.557
118.193
117.826
117.454
117.079
116.701
116.319
115.933
115.545
115.153
114.758
114.359
113.958
113.554
113.146
112.735
112.322
111.905
111.485
111.062
110.636
110.207
109.774
109.339
108.9
108.458
108.013
107.565
107.113
106.658
106.2
105.738
105.273
104.805
104.332
103.857
103.378
102.895
102.408
101.918
101.424
100.927
100.425
99.9202
99.4112
98.8982
98.3813
97.8604
97.3355
96.8066
96.2735
95.7364
95.195
94.6495
94.0997
93.5456
92.9873
92.4246
91.8575
91.286
90.7099
90.1294
89.5443
88.9546
88.3603
87.7614
87.1578
86.5494
85.9362
85.3182
84.6954
84.0676
83.4349
82.7973
82.1546
81.5068
80.854
80.196
79.5328
78.8644
78.1908
77.5119
76.8277
76.1381
75.4431
74.7427
74.0368
73.3255
72.6086
71.8863
71.1584
70.4251
69.686
68.9417
68.1914
67.4357
66.6739
65.9056
65.1306
64.3467
63.5531
62.7459
61.9208
61.0727
60.1926
106.606
106.563
106.452
106.289
106.071
105.802
105.481
105.113
104.686
104.188
103.613
102.962
102.231
101.416
100.523
99.56
98.5549
97.5551
96.6386
95.8824
95.3477
95.0796
95.117
95.51
96.2996
97.4984
99.0805
100.963
103.024
105.145
107.264
109.347
111.368
113.303
115.126
116.815
118.357
119.732
120.917
121.907
122.714
123.359
123.868
124.261
124.555
124.768
124.914
125.005
125.049
125.052
125.016
124.947
124.848
124.722
124.571
124.399
124.207
123.998
123.773
123.535
123.283
123.021
122.747
122.464
122.173
121.873
121.565
121.25
120.929
120.601
120.268
119.929
119.586
119.237
118.883
118.526
118.164
117.798
117.428
117.054
116.677
116.296
115.912
115.525
115.134
114.74
114.343
113.942
113.539
113.132
112.722
112.309
111.893
111.474
111.052
110.626
110.197
109.766
109.331
108.893
108.451
108.006
107.558
107.107
106.653
106.195
105.733
105.268
104.8
104.328
103.853
103.374
102.891
102.405
101.915
101.421
100.924
100.423
99.9176
99.4086
98.8958
98.379
97.8583
97.3335
96.8046
96.2717
95.7346
95.1933
94.6478
94.0981
93.5441
92.9859
92.4232
91.8562
91.2847
90.7087
90.1282
89.5431
88.9535
88.3593
87.7604
87.1567
86.5484
85.9352
85.3172
84.6944
84.0666
83.4339
82.7963
82.1536
81.5059
80.853
80.1949
79.5317
78.8633
78.1896
77.5107
76.8264
76.1366
75.4415
74.7409
74.0347
73.3231
72.6058
71.8829
71.1543
70.4201
69.68
68.9341
68.1821
67.424
66.6592
65.8871
65.1074
64.3177
63.5168
62.7014
61.8671
61.0093
60.1203
105.004
104.924
104.733
104.465
104.119
103.693
103.166
102.538
101.803
100.968
100.024
98.9537
97.7529
96.4401
95.0532
93.6017
92.1232
90.6933
89.4288
88.4283
87.7581
87.4558
87.5575
88.1103
89.1582
90.7156
92.7633
95.2271
97.9594
100.793
103.6
106.305
108.87
111.271
113.472
115.455
117.229
118.809
120.173
121.311
122.239
122.981
123.564
124.012
124.348
124.589
124.756
124.863
124.92
124.932
124.905
124.843
124.749
124.628
124.481
124.313
124.125
123.919
123.698
123.463
123.215
122.955
122.685
122.405
122.116
121.818
121.513
121.201
120.882
120.557
120.226
119.889
119.548
119.201
118.849
118.493
118.133
117.769
117.401
117.028
116.653
116.273
115.89
115.504
115.114
114.722
114.325
113.926
113.523
113.117
112.708
112.296
111.881
111.462
111.041
110.616
110.188
109.757
109.322
108.884
108.444
107.999
107.552
107.101
106.647
106.189
105.728
105.263
104.795
104.324
103.849
103.37
102.887
102.401
101.912
101.418
100.921
100.42
99.9149
99.4061
98.8934
98.3768
97.8561
97.3314
96.8027
96.2698
95.7328
95.1916
94.6462
94.0966
93.5427
92.9844
92.4218
91.8548
91.2834
90.7074
90.127
89.542
88.9524
88.3582
87.7593
87.1557
86.5474
85.9342
85.3162
84.6934
84.0657
83.433
82.7954
82.1527
81.5049
80.852
80.1939
79.5307
78.8622
78.1885
77.5094
76.825
76.1352
75.4399
74.7391
74.0327
73.3206
72.603
71.8795
71.1503
70.4152
69.6739
68.9267
68.1729
67.4124
66.6448
65.8691
65.0848
64.2897
63.4823
62.6595
61.8171
60.9509
60.0543
103.269
103.135
102.84
102.413
101.854
101.156
100.301
99.2762
98.0662
96.6782
95.12
93.4088
91.5887
89.731
87.883
86.0487
84.2419
82.564
81.1487
80.094
79.4589
79.2748
79.5665
80.364
81.7146
83.6581
86.2004
89.2968
92.8069
96.4843
100.102
103.519
106.678
109.552
112.122
114.374
116.341
118.061
119.539
120.779
121.8
122.622
123.269
123.766
124.137
124.405
124.592
124.713
124.781
124.804
124.785
124.729
124.641
124.524
124.383
124.219
124.036
123.835
123.618
123.386
123.142
122.886
122.619
122.342
122.056
121.762
121.459
121.15
120.834
120.511
120.182
119.848
119.508
119.163
118.814
118.46
118.101
117.739
117.372
117.002
116.627
116.249
115.868
115.483
115.094
114.702
114.307
113.909
113.507
113.102
112.694
112.283
111.868
111.45
111.029
110.605
110.178
109.747
109.313
108.876
108.436
107.992
107.545
107.094
106.64
106.183
105.722
105.258
104.79
104.319
103.844
103.366
102.884
102.398
101.908
101.415
100.918
100.417
99.9122
99.4036
98.891
98.3745
97.854
97.3294
96.8007
96.2679
95.731
95.1899
94.6446
94.095
93.5412
92.983
92.4205
91.8535
91.2821
90.7062
90.1258
89.5408
88.9513
88.3571
87.7583
87.1547
86.5464
85.9332
85.3153
84.6924
84.0647
83.4321
82.7945
82.1518
81.504
80.851
80.1929
79.5297
78.8612
78.1874
77.5083
76.8237
76.1338
75.4383
74.7373
74.0306
73.3183
72.6002
71.8762
71.1463
70.4103
69.668
68.9193
68.1638
67.4011
66.6307
65.8516
65.0631
64.2631
63.4498
62.6204
61.7708
60.8974
59.9942
101.458
101.238
100.742
100.031
99.1213
98.0084
96.6399
94.9705
93.0023
90.8137
88.4733
86.0249
83.596
81.3133
79.2483
77.4061
75.7455
74.2596
73.0256
72.1563
71.7629
71.9336
72.7184
74.1174
76.1243
78.7238
81.9647
85.8058
89.9917
94.2342
98.3027
102.074
105.5
108.581
111.332
113.73
115.789
117.558
119.075
120.363
121.441
122.318
123.01
123.54
123.936
124.224
124.425
124.558
124.636
124.666
124.655
124.605
124.523
124.412
124.276
124.118
123.94
123.745
123.532
123.305
123.065
122.813
122.55
122.276
121.994
121.703
121.403
121.097
120.783
120.463
120.137
119.805
119.467
119.125
118.777
118.425
118.068
117.708
117.343
116.974
116.601
116.224
115.844
115.461
115.073
114.683
114.289
113.891
113.491
113.087
112.679
112.269
111.855
111.438
111.018
110.594
110.168
109.738
109.304
108.868
108.428
107.984
107.538
107.088
106.634
106.177
105.717
105.253
104.786
104.315
103.84
103.362
102.88
102.394
101.905
101.412
100.915
100.414
99.9095
99.401
98.8886
98.3722
97.8518
97.3273
96.7987
96.266
95.7292
95.1882
94.643
94.0935
93.5397
92.9816
92.4191
91.8522
91.2808
90.7049
90.1246
89.5397
88.9502
88.3561
87.7573
87.1537
86.5454
85.9323
85.3143
84.6915
84.0638
83.4312
82.7936
82.1509
81.5031
80.8501
80.192
79.5287
78.8601
78.1863
77.5071
76.8225
76.1324
75.4368
74.7355
74.0286
73.316
72.5975
71.873
71.1424
70.4056
69.6623
68.9122
68.155
67.3902
66.6172
65.8349
65.0425
64.2379
63.4194
62.5841
61.7283
60.8486
59.9397
99.3772
99.0134
98.2234
97.0827
95.5892
93.7579
91.5622
88.9881
86.1096
83.1405
80.1616
77.2295
74.4898
72.0897
70.1407
68.7257
67.784
67.143
66.7467
66.7027
67.1328
68.1865
69.8872
72.1384
74.8548
78.0312
81.6961
85.787
90.0732
94.2856
98.2791
101.993
105.361
108.393
111.125
113.523
115.563
117.301
118.801
120.096
121.193
122.092
122.801
123.344
123.751
124.05
124.261
124.402
124.487
124.524
124.519
124.475
124.399
124.294
124.164
124.013
123.841
123.651
123.444
123.222
122.986
122.738
122.479
122.209
121.93
121.642
121.346
121.042
120.731
120.414
120.09
119.761
119.425
119.085
118.74
118.39
118.035
117.676
117.313
116.945
116.574
116.199
115.82
115.438
115.052
114.663
114.27
113.873
113.474
113.071
112.664
112.255
111.842
111.426
111.006
110.583
110.157
109.728
109.295
108.859
108.42
107.977
107.53
107.081
106.628
106.171
105.711
105.248
104.781
104.31
103.835
103.357
102.876
102.391
101.901
101.408
100.912
100.411
99.9068
99.3984
98.8861
98.3698
97.8495
97.3252
96.7967
96.2642
95.7274
95.1865
94.6414
94.092
93.5383
92.9802
92.4177
91.8508
91.2795
90.7037
90.1235
89.5386
88.9492
88.3551
87.7563
87.1527
86.5444
85.9313
85.3134
84.6906
84.063
83.4303
82.7927
82.15
81.5022
80.8492
80.1911
79.5277
78.8592
78.1853
77.506
76.8213
76.131
75.4353
74.7338
74.0267
73.3137
72.5948
71.8699
71.1387
70.4011
69.6567
68.9054
68.1466
67.3798
66.6043
65.8191
65.0231
64.2145
63.3912
62.5507
61.6895
60.8042
59.8904
96.98
96.429
95.1898
93.3078
90.8036
87.8514
84.6663
81.1933
77.59
74.2325
71.2397
68.7189
66.7465
65.2948
64.402
64.2112
64.607
65.3001
66.0801
67.0511
68.3862
70.2045
72.485
75.0949
77.9692
81.1513
84.6575
88.417
92.2875
96.0761
99.6731
103.057
106.177
108.997
111.524
113.745
115.651
117.296
118.742
120.002
121.071
121.948
122.642
123.175
123.579
123.88
124.097
124.247
124.339
124.382
124.382
124.345
124.274
124.176
124.052
123.907
123.741
123.557
123.355
123.137
122.906
122.661
122.406
122.14
121.864
121.579
121.286
120.986
120.678
120.363
120.042
119.715
119.382
119.044
118.701
118.353
118
117.643
117.282
116.916
116.547
116.173
115.796
115.415
115.03
114.642
114.25
113.855
113.456
113.054
112.649
112.24