/*--------------------------------*- C++ -*----------------------------------*\
| =========                 |                                                 |
| \\      /  F ield         | OpenFOAM: The Open Source CFD Toolbox           |
|  \\    /   O peration     | Version:  2.1.x                                 |
|   \\  /    A nd           | Web:      www.OpenFOAM.org                      |
|    \\/     M anipulation  |                                                 |
\*---------------------------------------------------------------------------*/
FoamFile
{
    version     2.0;
    format      ascii;
    class       volScalarField;
    location    "0.007";
    object      pPrime2Mean;
}
// * * * * * * * * * * * * * * * * * * * * * * * * * * * * * * * * * * * * * //

dimensions      [0 4 -4 0 0 0 0];

internalField   nonuniform List<scalar> 
12225
(
5.79258e+07
5.70029e+07
5.60509e+07
5.51326e+07
5.42498e+07
5.34005e+07
5.25825e+07
5.17933e+07
5.10303e+07
5.02908e+07
4.95717e+07
4.88696e+07
4.81804e+07
4.7499e+07
4.68179e+07
4.61264e+07
4.5404e+07
4.46017e+07
5.7927e+07
5.70034e+07
5.60513e+07
5.5133e+07
5.42503e+07
5.34011e+07
5.25832e+07
5.17941e+07
5.10313e+07
5.02921e+07
4.95733e+07
4.88717e+07
4.81832e+07
4.75028e+07
4.68237e+07
4.61357e+07
4.5422e+07
4.46435e+07
5.79282e+07
5.70043e+07
5.60521e+07
5.5134e+07
5.42514e+07
5.34024e+07
5.25847e+07
5.1796e+07
5.10337e+07
5.0295e+07
4.9577e+07
4.88765e+07
4.81896e+07
4.75117e+07
4.68367e+07
4.61563e+07
4.54586e+07
4.47285e+07
5.79306e+07
5.7006e+07
5.60536e+07
5.51357e+07
5.42533e+07
5.34046e+07
5.25874e+07
5.17993e+07
5.10377e+07
5.03e+07
4.95833e+07
4.88847e+07
4.82005e+07
4.75267e+07
4.68583e+07
4.61895e+07
4.55144e+07
4.48339e+07
5.79335e+07
5.70087e+07
5.60561e+07
5.51383e+07
5.42563e+07
5.34082e+07
5.25916e+07
5.18043e+07
5.10438e+07
5.03076e+07
4.9593e+07
4.88971e+07
4.82168e+07
4.75489e+07
4.68896e+07
4.62359e+07
4.55869e+07
4.4951e+07
5.79386e+07
5.70126e+07
5.60597e+07
5.51422e+07
5.42607e+07
5.34132e+07
5.25976e+07
5.18115e+07
5.10526e+07
5.03185e+07
4.96067e+07
4.89146e+07
4.82397e+07
4.75794e+07
4.69316e+07
4.62953e+07
4.56731e+07
4.50751e+07
5.79466e+07
5.7018e+07
5.60648e+07
5.51475e+07
5.42667e+07
5.34202e+07
5.26059e+07
5.18214e+07
5.10647e+07
5.03334e+07
4.96253e+07
4.89381e+07
4.827e+07
4.76191e+07
4.69845e+07
4.6367e+07
4.57704e+07
4.5204e+07
5.79539e+07
5.7024e+07
5.60705e+07
5.51536e+07
5.42736e+07
5.34282e+07
5.26152e+07
5.18326e+07
5.10782e+07
5.035e+07
4.96458e+07
4.89638e+07
4.83025e+07
4.76608e+07
4.70384e+07
4.6437e+07
4.58605e+07
4.53161e+07
5.79613e+07
5.70301e+07
5.60766e+07
5.51602e+07
5.4281e+07
5.34367e+07
5.26252e+07
5.18445e+07
5.10926e+07
5.03675e+07
4.96674e+07
4.89906e+07
4.8336e+07
4.7703e+07
4.70919e+07
4.65044e+07
4.59443e+07
4.54171e+07
5.79683e+07
5.70378e+07
5.60846e+07
5.51689e+07
5.42907e+07
5.34479e+07
5.26383e+07
5.18601e+07
5.11113e+07
5.03901e+07
4.9695e+07
4.90245e+07
4.83779e+07
4.77548e+07
4.71559e+07
4.6583e+07
4.60391e+07
4.5528e+07
5.7977e+07
5.70475e+07
5.6095e+07
5.51802e+07
5.43034e+07
5.34625e+07
5.26554e+07
5.18803e+07
5.11354e+07
5.04191e+07
4.97299e+07
4.90669e+07
4.84294e+07
4.78174e+07
4.72315e+07
4.66733e+07
4.61449e+07
4.56489e+07
5.79859e+07
5.70599e+07
5.61087e+07
5.51951e+07
5.432e+07
5.34815e+07
5.26775e+07
5.19063e+07
5.11662e+07
5.04557e+07
4.97736e+07
4.91192e+07
4.84919e+07
4.78917e+07
4.73192e+07
4.67755e+07
4.62619e+07
4.57796e+07
5.80024e+07
5.70768e+07
5.61264e+07
5.52144e+07
5.43415e+07
5.35059e+07
5.27057e+07
5.19392e+07
5.12048e+07
5.05012e+07
4.98274e+07
4.91825e+07
4.85661e+07
4.79783e+07
4.74192e+07
4.68894e+07
4.63895e+07
4.59198e+07
5.80283e+07
5.70995e+07
5.61495e+07
5.52391e+07
5.43689e+07
5.35369e+07
5.27413e+07
5.19804e+07
5.12526e+07
5.05569e+07
4.98921e+07
4.92575e+07
4.86526e+07
4.80772e+07
4.75312e+07
4.70145e+07
4.65272e+07
4.60688e+07
5.80562e+07
5.71278e+07
5.61785e+07
5.52702e+07
5.44032e+07
5.35755e+07
5.27852e+07
5.20307e+07
5.13105e+07
5.06233e+07
4.99682e+07
4.93444e+07
4.87511e+07
4.81878e+07
4.76541e+07
4.71495e+07
4.66735e+07
4.62253e+07
5.80929e+07
5.71626e+07
5.62143e+07
5.53085e+07
5.44452e+07
5.36224e+07
5.28381e+07
5.20906e+07
5.13785e+07
5.07005e+07
5.00554e+07
4.94423e+07
4.88602e+07
4.83084e+07
4.77861e+07
4.72924e+07
4.68264e+07
4.63871e+07
5.81323e+07
5.7203e+07
5.62566e+07
5.53539e+07
5.4495e+07
5.36776e+07
5.28998e+07
5.21598e+07
5.14561e+07
5.07873e+07
5.0152e+07
4.95492e+07
4.89776e+07
4.84363e+07
4.79241e+07
4.744e+07
4.69828e+07
4.65513e+07
5.81729e+07
5.72452e+07
5.63012e+07
5.54019e+07
5.45473e+07
5.37352e+07
5.29636e+07
5.22306e+07
5.15346e+07
5.08739e+07
5.02473e+07
4.96532e+07
4.90905e+07
4.85577e+07
4.80537e+07
4.75772e+07
4.71269e+07
4.67015e+07
5.82085e+07
5.72827e+07
5.6341e+07
5.54446e+07
5.45937e+07
5.37859e+07
5.30192e+07
5.22918e+07
5.16017e+07
5.09473e+07
5.03271e+07
4.97395e+07
4.91831e+07
4.86565e+07
4.81583e+07
4.76872e+07
4.72417e+07
4.68206e+07
5.82376e+07
5.73134e+07
5.63733e+07
5.54792e+07
5.4631e+07
5.38265e+07
5.30635e+07
5.234e+07
5.16543e+07
5.10044e+07
5.03887e+07
4.98057e+07
4.92538e+07
4.87314e+07
4.82372e+07
4.77697e+07
4.73275e+07
4.69093e+07
5.82624e+07
5.73382e+07
5.63991e+07
5.55065e+07
5.46603e+07
5.38582e+07
5.3098e+07
5.23775e+07
5.16948e+07
5.10482e+07
5.04358e+07
4.9856e+07
4.93072e+07
4.87878e+07
4.82963e+07
4.78314e+07
4.73915e+07
4.69753e+07
5.82815e+07
5.73577e+07
5.64192e+07
5.55277e+07
5.4683e+07
5.38827e+07
5.31244e+07
5.2406e+07
5.17256e+07
5.10813e+07
5.04712e+07
4.98937e+07
4.93472e+07
4.88299e+07
4.83404e+07
4.78772e+07
4.7439e+07
4.70242e+07
5.82966e+07
5.73727e+07
5.64346e+07
5.55438e+07
5.47002e+07
5.39011e+07
5.31443e+07
5.24275e+07
5.17487e+07
5.1106e+07
5.04976e+07
4.99218e+07
4.93768e+07
4.8861e+07
4.83729e+07
4.7911e+07
4.74739e+07
4.70601e+07
5.83088e+07
5.73839e+07
5.6446e+07
5.55558e+07
5.47129e+07
5.39148e+07
5.31589e+07
5.24432e+07
5.17656e+07
5.11241e+07
5.0517e+07
4.99423e+07
4.93984e+07
4.88837e+07
4.83965e+07
4.79355e+07
4.74992e+07
4.70861e+07
5.8317e+07
5.73919e+07
5.64542e+07
5.55645e+07
5.47222e+07
5.39247e+07
5.31695e+07
5.24546e+07
5.17778e+07
5.11372e+07
5.05308e+07
4.99569e+07
4.94138e+07
4.88999e+07
4.84134e+07
4.7953e+07
4.75173e+07
4.71047e+07
5.83218e+07
5.73973e+07
5.646e+07
5.55706e+07
5.47287e+07
5.39316e+07
5.3177e+07
5.24626e+07
5.17863e+07
5.11463e+07
5.05405e+07
4.99672e+07
4.94246e+07
4.89111e+07
4.84252e+07
4.79652e+07
4.75298e+07
4.71176e+07
5.83232e+07
5.74006e+07
5.64639e+07
5.55748e+07
5.47332e+07
5.39363e+07
5.3182e+07
5.24679e+07
5.17921e+07
5.11524e+07
5.0547e+07
4.9974e+07
4.94318e+07
4.89187e+07
4.8433e+07
4.79734e+07
4.75382e+07
4.71262e+07
5.83251e+07
5.74027e+07
5.64664e+07
5.55775e+07
5.4736e+07
5.39393e+07
5.31852e+07
5.24713e+07
5.17957e+07
5.11562e+07
5.05511e+07
4.99783e+07
4.94364e+07
4.89234e+07
4.8438e+07
4.79785e+07
4.75435e+07
4.71316e+07
5.83255e+07
5.74039e+07
5.64679e+07
5.55791e+07
5.47376e+07
5.3941e+07
5.31869e+07
5.24732e+07
5.17977e+07
5.11584e+07
5.05533e+07
4.99808e+07
4.94389e+07
4.89261e+07
4.84407e+07
4.79813e+07
4.75464e+07
4.71346e+07
5.83249e+07
5.74042e+07
5.64685e+07
5.55797e+07
5.47383e+07
5.39417e+07
5.31877e+07
5.2474e+07
5.17985e+07
5.11593e+07
5.05543e+07
4.99818e+07
4.94399e+07
4.89272e+07
4.84419e+07
4.79825e+07
4.75477e+07
4.71359e+07
3.76867e+07
3.76837e+07
3.76777e+07
3.76685e+07
3.76561e+07
3.76405e+07
3.76216e+07
3.75994e+07
3.75738e+07
3.75448e+07
3.75123e+07
3.74763e+07
3.74367e+07
3.73937e+07
3.73471e+07
3.72969e+07
3.72431e+07
3.71857e+07
3.71248e+07
3.70602e+07
3.69921e+07
3.69204e+07
3.68452e+07
3.67664e+07
3.66841e+07
3.65984e+07
3.65092e+07
3.64165e+07
3.63205e+07
3.62212e+07
3.61185e+07
3.60126e+07
3.59035e+07
3.57911e+07
3.56757e+07
3.55571e+07
3.54356e+07
3.5311e+07
3.51835e+07
3.50531e+07
3.49199e+07
3.47839e+07
3.46451e+07
3.45037e+07
3.43596e+07
3.42129e+07
3.40636e+07
3.39119e+07
3.37578e+07
3.36012e+07
3.34423e+07
3.3281e+07
3.31175e+07
3.29518e+07
3.27839e+07
3.26139e+07
3.24418e+07
3.22677e+07
3.20915e+07
3.19134e+07
3.17334e+07
3.15515e+07
3.13677e+07
3.11821e+07
3.09948e+07
3.08057e+07
3.0615e+07
3.04225e+07
3.02285e+07
3.00328e+07
2.98356e+07
2.96369e+07
2.94366e+07
2.92349e+07
2.90318e+07
2.88272e+07
2.86213e+07
2.8414e+07
2.82054e+07
2.79955e+07
2.77843e+07
2.75719e+07
2.73583e+07
2.71434e+07
2.69274e+07
2.67103e+07
2.64921e+07
2.62727e+07
2.60523e+07
2.58309e+07
2.56084e+07
2.5385e+07
2.51605e+07
2.49351e+07
2.47088e+07
2.44815e+07
2.42534e+07
2.40244e+07
2.37946e+07
2.35639e+07
2.33325e+07
2.31002e+07
2.28672e+07
2.26335e+07
2.2399e+07
2.21639e+07
2.1928e+07
2.16916e+07
2.14545e+07
2.12168e+07
2.09785e+07
2.07396e+07
2.05002e+07
2.02603e+07
2.00199e+07
1.9779e+07
1.95376e+07
1.92959e+07
1.90537e+07
1.88112e+07
1.85683e+07
1.83251e+07
1.80815e+07
1.78377e+07
1.75937e+07
1.73494e+07
1.7105e+07
1.68603e+07
1.66155e+07
1.63707e+07
1.61257e+07
1.58807e+07
1.56356e+07
1.53906e+07
1.51456e+07
1.49007e+07
1.46559e+07
1.44112e+07
1.41667e+07
1.39224e+07
1.36783e+07
1.34345e+07
1.31911e+07
1.2948e+07
1.27053e+07
1.2463e+07
1.22212e+07
1.19799e+07
1.17391e+07
1.1499e+07
1.12595e+07
1.10206e+07
1.07826e+07
1.05453e+07
1.03088e+07
1.00732e+07
9.83851e+06
9.60482e+06
9.37215e+06
9.14057e+06
8.91013e+06
8.68089e+06
8.4529e+06
8.22624e+06
8.00095e+06
7.77712e+06
7.5548e+06
7.33407e+06
7.11502e+06
6.89771e+06
6.68226e+06
6.46875e+06
6.2573e+06
6.04805e+06
5.84115e+06
5.63682e+06
5.43533e+06
5.23708e+06
5.04278e+06
4.85393e+06
3.77005e+07
3.76974e+07
3.76913e+07
3.76821e+07
3.76697e+07
3.7654e+07
3.7635e+07
3.76126e+07
3.75868e+07
3.75576e+07
3.7525e+07
3.74888e+07
3.7449e+07
3.74058e+07
3.73589e+07
3.73085e+07
3.72544e+07
3.71968e+07
3.71356e+07
3.70707e+07
3.70023e+07
3.69304e+07
3.68548e+07
3.67758e+07
3.66932e+07
3.66072e+07
3.65177e+07
3.64247e+07
3.63284e+07
3.62288e+07
3.61259e+07
3.60197e+07
3.59102e+07
3.57976e+07
3.56819e+07
3.55631e+07
3.54413e+07
3.53165e+07
3.51887e+07
3.50581e+07
3.49247e+07
3.47884e+07
3.46495e+07
3.45078e+07
3.43635e+07
3.42166e+07
3.40672e+07
3.39153e+07
3.3761e+07
3.36043e+07
3.34452e+07
3.32838e+07
3.31202e+07
3.29543e+07
3.27863e+07
3.26162e+07
3.24439e+07
3.22697e+07
3.20934e+07
3.19152e+07
3.17351e+07
3.15531e+07
3.13692e+07
3.11836e+07
3.09961e+07
3.0807e+07
3.06162e+07
3.04237e+07
3.02295e+07
3.00338e+07
2.98366e+07
2.96378e+07
2.94375e+07
2.92357e+07
2.90325e+07
2.88279e+07
2.86219e+07
2.84146e+07
2.82059e+07
2.7996e+07
2.77848e+07
2.75723e+07
2.73587e+07
2.71438e+07
2.69278e+07
2.67107e+07
2.64924e+07
2.62731e+07
2.60526e+07
2.58312e+07
2.56087e+07
2.53852e+07
2.51607e+07
2.49353e+07
2.4709e+07
2.44817e+07
2.42536e+07
2.40246e+07
2.37947e+07
2.3564e+07
2.33326e+07
2.31003e+07
2.28673e+07
2.26336e+07
2.23991e+07
2.21639e+07
2.19281e+07
2.16916e+07
2.14545e+07
2.12168e+07
2.09785e+07
2.07396e+07
2.05002e+07
2.02603e+07
2.00199e+07
1.9779e+07
1.95377e+07
1.92959e+07
1.90537e+07
1.88112e+07
1.85683e+07
1.83251e+07
1.80816e+07
1.78378e+07
1.75937e+07
1.73494e+07
1.7105e+07
1.68603e+07
1.66156e+07
1.63707e+07
1.61257e+07
1.58807e+07
1.56356e+07
1.53906e+07
1.51456e+07
1.49007e+07
1.46559e+07
1.44112e+07
1.41667e+07
1.39224e+07
1.36783e+07
1.34345e+07
1.31911e+07
1.2948e+07
1.27053e+07
1.2463e+07
1.22212e+07
1.19799e+07
1.17391e+07
1.1499e+07
1.12595e+07
1.10206e+07
1.07826e+07
1.05453e+07
1.03088e+07
1.00732e+07
9.83851e+06
9.60481e+06
9.37215e+06
9.14057e+06
8.91013e+06
8.68088e+06
8.4529e+06
8.22623e+06
8.00094e+06
7.77711e+06
7.55479e+06
7.33406e+06
7.11499e+06
6.89768e+06
6.68222e+06
6.4687e+06
6.25724e+06
6.04796e+06
5.84104e+06
5.63666e+06
5.4351e+06
5.23672e+06
5.04213e+06
4.8524e+06
3.7728e+07
3.7725e+07
3.77188e+07
3.77094e+07
3.76968e+07
3.76809e+07
3.76617e+07
3.7639e+07
3.7613e+07
3.75834e+07
3.75504e+07
3.75138e+07
3.74737e+07
3.74299e+07
3.73826e+07
3.73317e+07
3.72771e+07
3.7219e+07
3.71572e+07
3.70918e+07
3.70228e+07
3.69503e+07
3.68742e+07
3.67945e+07
3.67114e+07
3.66247e+07
3.65346e+07
3.64411e+07
3.63443e+07
3.6244e+07
3.61405e+07
3.60337e+07
3.59238e+07
3.58106e+07
3.56944e+07
3.55751e+07
3.54527e+07
3.53274e+07
3.51992e+07
3.50681e+07
3.49342e+07
3.47976e+07
3.46582e+07
3.45161e+07
3.43714e+07
3.42242e+07
3.40744e+07
3.39221e+07
3.37675e+07
3.36104e+07
3.3451e+07
3.32893e+07
3.31254e+07
3.29593e+07
3.2791e+07
3.26206e+07
3.24482e+07
3.22737e+07
3.20972e+07
3.19188e+07
3.17385e+07
3.15563e+07
3.13722e+07
3.11864e+07
3.09988e+07
3.08095e+07
3.06186e+07
3.04259e+07
3.02317e+07
3.00358e+07
2.98384e+07
2.96395e+07
2.94391e+07
2.92372e+07
2.9034e+07
2.88293e+07
2.86232e+07
2.84158e+07
2.82071e+07
2.79971e+07
2.77858e+07
2.75733e+07
2.73595e+07
2.71446e+07
2.69286e+07
2.67114e+07
2.64931e+07
2.62737e+07
2.60532e+07
2.58317e+07
2.56092e+07
2.53857e+07
2.51612e+07
2.49357e+07
2.47093e+07
2.44821e+07
2.42539e+07
2.40249e+07
2.3795e+07
2.35643e+07
2.33328e+07
2.31005e+07
2.28675e+07
2.26338e+07
2.23993e+07
2.21641e+07
2.19283e+07
2.16918e+07
2.14546e+07
2.12169e+07
2.09786e+07
2.07397e+07
2.05003e+07
2.02604e+07
2.002e+07
1.97791e+07
1.95377e+07
1.9296e+07
1.90538e+07
1.88112e+07
1.85683e+07
1.83251e+07
1.80816e+07
1.78378e+07
1.75937e+07
1.73495e+07
1.7105e+07
1.68604e+07
1.66156e+07
1.63707e+07
1.61257e+07
1.58807e+07
1.56357e+07
1.53906e+07
1.51456e+07
1.49007e+07
1.46559e+07
1.44112e+07
1.41667e+07
1.39224e+07
1.36783e+07
1.34345e+07
1.31911e+07
1.2948e+07
1.27053e+07
1.2463e+07
1.22212e+07
1.19799e+07
1.17391e+07
1.1499e+07
1.12595e+07
1.10207e+07
1.07826e+07
1.05453e+07
1.03088e+07
1.00732e+07
9.83851e+06
9.60481e+06
9.37214e+06
9.14056e+06
8.91012e+06
8.68087e+06
8.45289e+06
8.22622e+06
8.00093e+06
7.77708e+06
7.55476e+06
7.33402e+06
7.11495e+06
6.89763e+06
6.68214e+06
6.4686e+06
6.25711e+06
6.04779e+06
5.84081e+06
5.63635e+06
5.43464e+06
5.23602e+06
5.04095e+06
4.85001e+06
3.77696e+07
3.77665e+07
3.77601e+07
3.77506e+07
3.77377e+07
3.77215e+07
3.77019e+07
3.76789e+07
3.76524e+07
3.76223e+07
3.75887e+07
3.75515e+07
3.75107e+07
3.74663e+07
3.74183e+07
3.73666e+07
3.73113e+07
3.72523e+07
3.71897e+07
3.71235e+07
3.70536e+07
3.69802e+07
3.69032e+07
3.68227e+07
3.67386e+07
3.66511e+07
3.65601e+07
3.64657e+07
3.63679e+07
3.62669e+07
3.61625e+07
3.60549e+07
3.59441e+07
3.58301e+07
3.57131e+07
3.5593e+07
3.54699e+07
3.53438e+07
3.52149e+07
3.50831e+07
3.49485e+07
3.48112e+07
3.46712e+07
3.45285e+07
3.43832e+07
3.42354e+07
3.40851e+07
3.39323e+07
3.37771e+07
3.36196e+07
3.34597e+07
3.32976e+07
3.31333e+07
3.29667e+07
3.27981e+07
3.26273e+07
3.24545e+07
3.22797e+07
3.21029e+07
3.19241e+07
3.17435e+07
3.1561e+07
3.13767e+07
3.11907e+07
3.10028e+07
3.08133e+07
3.06221e+07
3.04293e+07
3.02348e+07
3.00388e+07
2.98412e+07
2.96421e+07
2.94416e+07
2.92396e+07
2.90361e+07
2.88313e+07
2.86251e+07
2.84176e+07
2.82087e+07
2.79986e+07
2.77872e+07
2.75746e+07
2.73608e+07
2.71458e+07
2.69297e+07
2.67124e+07
2.6494e+07
2.62746e+07
2.6054e+07
2.58325e+07
2.56099e+07
2.53863e+07
2.51618e+07
2.49363e+07
2.47099e+07
2.44826e+07
2.42544e+07
2.40253e+07
2.37954e+07
2.35647e+07
2.33332e+07
2.31009e+07
2.28678e+07
2.2634e+07
2.23995e+07
2.21643e+07
2.19285e+07
2.1692e+07
2.14548e+07
2.12171e+07
2.09788e+07
2.07399e+07
2.05005e+07
2.02605e+07
2.00201e+07
1.97792e+07
1.95378e+07
1.9296e+07
1.90539e+07
1.88113e+07
1.85684e+07
1.83252e+07
1.80816e+07
1.78378e+07
1.75938e+07
1.73495e+07
1.7105e+07
1.68604e+07
1.66156e+07
1.63707e+07
1.61257e+07
1.58807e+07
1.56357e+07
1.53906e+07
1.51456e+07
1.49007e+07
1.46559e+07
1.44112e+07
1.41667e+07
1.39224e+07
1.36783e+07
1.34346e+07
1.31911e+07
1.2948e+07
1.27053e+07
1.2463e+07
1.22212e+07
1.19799e+07
1.17391e+07
1.1499e+07
1.12595e+07
1.10207e+07
1.07826e+07
1.05453e+07
1.03088e+07
1.00732e+07
9.8385e+06
9.60481e+06
9.37214e+06
9.14055e+06
8.91011e+06
8.68086e+06
8.45287e+06
8.22619e+06
8.0009e+06
7.77705e+06
7.55471e+06
7.33396e+06
7.11488e+06
6.89754e+06
6.68203e+06
6.46845e+06
6.25692e+06
6.04754e+06
5.84048e+06
5.63589e+06
5.43399e+06
5.23505e+06
5.03939e+06
4.84724e+06
3.78255e+07
3.78222e+07
3.78157e+07
3.78058e+07
3.77926e+07
3.7776e+07
3.77559e+07
3.77323e+07
3.77052e+07
3.76744e+07
3.76401e+07
3.76021e+07
3.75604e+07
3.75151e+07
3.7466e+07
3.74133e+07
3.7357e+07
3.72969e+07
3.72332e+07
3.71658e+07
3.70948e+07
3.70202e+07
3.6942e+07
3.68602e+07
3.6775e+07
3.66862e+07
3.6594e+07
3.64984e+07
3.63995e+07
3.62972e+07
3.61917e+07
3.6083e+07
3.5971e+07
3.5856e+07
3.57379e+07
3.56167e+07
3.54926e+07
3.53656e+07
3.52357e+07
3.5103e+07
3.49675e+07
3.48293e+07
3.46884e+07
3.4545e+07
3.43989e+07
3.42503e+07
3.40993e+07
3.39458e+07
3.379e+07
3.36318e+07
3.34713e+07
3.33086e+07
3.31437e+07
3.29766e+07
3.28074e+07
3.26362e+07
3.24629e+07
3.22876e+07
3.21104e+07
3.19312e+07
3.17502e+07
3.15674e+07
3.13827e+07
3.11963e+07
3.10082e+07
3.08183e+07
3.06268e+07
3.04337e+07
3.0239e+07
3.00427e+07
2.98449e+07
2.96456e+07
2.94448e+07
2.92426e+07
2.9039e+07
2.8834e+07
2.86276e+07
2.842e+07
2.8211e+07
2.80007e+07
2.77892e+07
2.75765e+07
2.73625e+07
2.71474e+07
2.69312e+07
2.67138e+07
2.64953e+07
2.62758e+07
2.60552e+07
2.58335e+07
2.56109e+07
2.53872e+07
2.51626e+07
2.49371e+07
2.47106e+07
2.44832e+07
2.4255e+07
2.40259e+07
2.37959e+07
2.35652e+07
2.33336e+07
2.31013e+07
2.28682e+07
2.26344e+07
2.23999e+07
2.21646e+07
2.19288e+07
2.16922e+07
2.14551e+07
2.12173e+07
2.0979e+07
2.07401e+07
2.05006e+07
2.02607e+07
2.00202e+07
1.97793e+07
1.95379e+07
1.92962e+07
1.9054e+07
1.88114e+07
1.85685e+07
1.83253e+07
1.80817e+07
1.78379e+07
1.75938e+07
1.73496e+07
1.71051e+07
1.68604e+07
1.66156e+07
1.63708e+07
1.61258e+07
1.58807e+07
1.56357e+07
1.53907e+07
1.51457e+07
1.49007e+07
1.46559e+07
1.44112e+07
1.41667e+07
1.39224e+07
1.36783e+07
1.34346e+07
1.31911e+07
1.2948e+07
1.27053e+07
1.2463e+07
1.22212e+07
1.19799e+07
1.17391e+07
1.1499e+07
1.12595e+07
1.10207e+07
1.07826e+07
1.05453e+07
1.03088e+07
1.00732e+07
9.8385e+06
9.6048e+06
9.37213e+06
9.14054e+06
8.91009e+06
8.68084e+06
8.45285e+06
8.22617e+06
8.00086e+06
7.777e+06
7.55466e+06
7.33389e+06
7.11479e+06
6.89742e+06
6.68188e+06
6.46826e+06
6.25667e+06
6.04722e+06
5.84005e+06
5.63531e+06
5.43318e+06
5.23386e+06
5.03756e+06
4.84432e+06
3.7896e+07
3.78925e+07
3.78857e+07
3.78755e+07
3.78619e+07
3.78447e+07
3.7824e+07
3.77997e+07
3.77717e+07
3.77401e+07
3.77047e+07
3.76657e+07
3.76229e+07
3.75763e+07
3.7526e+07
3.7472e+07
3.74143e+07
3.73528e+07
3.72876e+07
3.72188e+07
3.71463e+07
3.70702e+07
3.69905e+07
3.69072e+07
3.68204e+07
3.67301e+07
3.66364e+07
3.65393e+07
3.64389e+07
3.63351e+07
3.62282e+07
3.6118e+07
3.60046e+07
3.58882e+07
3.57688e+07
3.56463e+07
3.55209e+07
3.53927e+07
3.52616e+07
3.51277e+07
3.49911e+07
3.48518e+07
3.47099e+07
3.45654e+07
3.44184e+07
3.42689e+07
3.41169e+07
3.39626e+07
3.38059e+07
3.36469e+07
3.34857e+07
3.33222e+07
3.31566e+07
3.29889e+07
3.28191e+07
3.26472e+07
3.24733e+07
3.22975e+07
3.21197e+07
3.194e+07
3.17585e+07
3.15752e+07
3.13901e+07
3.12033e+07
3.10148e+07
3.08246e+07
3.06327e+07
3.04392e+07
3.02442e+07
3.00476e+07
2.98495e+07
2.96499e+07
2.94489e+07
2.92465e+07
2.90426e+07
2.88374e+07
2.86308e+07
2.84229e+07
2.82137e+07
2.80033e+07
2.77916e+07
2.75787e+07
2.73647e+07
2.71494e+07
2.6933e+07
2.67155e+07
2.64969e+07
2.62773e+07
2.60566e+07
2.58348e+07
2.56121e+07
2.53884e+07
2.51637e+07
2.49381e+07
2.47115e+07
2.44841e+07
2.42558e+07
2.40266e+07
2.37966e+07
2.35658e+07
2.33342e+07
2.31018e+07
2.28687e+07
2.26348e+07
2.24003e+07
2.2165e+07
2.19291e+07
2.16926e+07
2.14554e+07
2.12176e+07
2.09792e+07
2.07403e+07
2.05008e+07
2.02609e+07
2.00204e+07
1.97795e+07
1.95381e+07
1.92963e+07
1.90541e+07
1.88115e+07
1.85686e+07
1.83253e+07
1.80818e+07
1.7838e+07
1.75939e+07
1.73496e+07
1.71051e+07
1.68605e+07
1.66157e+07
1.63708e+07
1.61258e+07
1.58808e+07
1.56357e+07
1.53907e+07
1.51457e+07
1.49008e+07
1.46559e+07
1.44112e+07
1.41667e+07
1.39224e+07
1.36784e+07
1.34346e+07
1.31911e+07
1.2948e+07
1.27053e+07
1.2463e+07
1.22212e+07
1.19799e+07
1.17391e+07
1.1499e+07
1.12595e+07
1.10207e+07
1.07826e+07
1.05453e+07
1.03088e+07
1.00732e+07
9.83849e+06
9.60479e+06
9.37212e+06
9.14053e+06
8.91008e+06
8.68082e+06
8.45282e+06
8.22613e+06
8.00082e+06
7.77695e+06
7.55459e+06
7.3338e+06
7.11468e+06
6.89728e+06
6.6817e+06
6.46803e+06
6.25637e+06
6.04683e+06
5.83953e+06
5.63461e+06
5.43222e+06
5.23251e+06
5.03558e+06
4.84137e+06
3.79815e+07
3.79779e+07
3.79708e+07
3.79601e+07
3.79459e+07
3.79281e+07
3.79066e+07
3.78813e+07
3.78523e+07
3.78195e+07
3.7783e+07
3.77426e+07
3.76984e+07
3.76503e+07
3.75985e+07
3.75428e+07
3.74834e+07
3.74202e+07
3.73533e+07
3.72826e+07
3.72083e+07
3.71303e+07
3.70487e+07
3.69636e+07
3.68749e+07
3.67828e+07
3.66872e+07
3.65883e+07
3.6486e+07
3.63805e+07
3.62718e+07
3.61598e+07
3.60448e+07
3.59267e+07
3.58057e+07
3.56817e+07
3.55547e+07
3.5425e+07
3.52925e+07
3.51572e+07
3.50192e+07
3.48787e+07
3.47355e+07
3.45898e+07
3.44416e+07
3.4291e+07
3.41379e+07
3.39826e+07
3.38249e+07
3.3665e+07
3.35028e+07
3.33385e+07
3.3172e+07
3.30035e+07
3.28329e+07
3.26603e+07
3.24857e+07
3.23092e+07
3.21308e+07
3.19505e+07
3.17685e+07
3.15846e+07
3.1399e+07
3.12116e+07
3.10226e+07
3.0832e+07
3.06397e+07
3.04458e+07
3.02504e+07
3.00534e+07
2.9855e+07
2.96551e+07
2.94537e+07
2.9251e+07
2.90469e+07
2.88414e+07
2.86345e+07
2.84264e+07
2.8217e+07
2.80064e+07
2.77945e+07
2.75814e+07
2.73672e+07
2.71518e+07
2.69352e+07
2.67176e+07
2.64989e+07
2.62791e+07
2.60582e+07
2.58364e+07
2.56135e+07
2.53897e+07
2.51649e+07
2.49392e+07
2.47126e+07
2.44851e+07
2.42567e+07
2.40275e+07
2.37974e+07
2.35665e+07
2.33349e+07
2.31024e+07
2.28693e+07
2.26354e+07
2.24008e+07
2.21655e+07
2.19295e+07
2.16929e+07
2.14557e+07
2.12179e+07
2.09795e+07
2.07406e+07
2.05011e+07
2.02611e+07
2.00206e+07
1.97797e+07
1.95383e+07
1.92965e+07
1.90542e+07
1.88117e+07
1.85687e+07
1.83255e+07
1.80819e+07
1.78381e+07
1.7594e+07
1.73497e+07
1.71052e+07
1.68606e+07
1.66158e+07
1.63709e+07
1.61259e+07
1.58808e+07
1.56358e+07
1.53907e+07
1.51457e+07
1.49008e+07
1.4656e+07
1.44113e+07
1.41668e+07
1.39224e+07
1.36784e+07
1.34346e+07
1.31911e+07
1.2948e+07
1.27053e+07
1.2463e+07
1.22212e+07
1.19799e+07
1.17391e+07
1.1499e+07
1.12595e+07
1.10207e+07
1.07826e+07
1.05453e+07
1.03088e+07
1.00732e+07
9.83849e+06
9.60478e+06
9.3721e+06
9.14051e+06
8.91006e+06
8.68079e+06
8.45279e+06
8.22609e+06
8.00077e+06
7.77688e+06
7.5545e+06
7.3337e+06
7.11455e+06
6.89712e+06
6.68149e+06
6.46777e+06
6.25603e+06
6.04639e+06
5.83895e+06
5.63383e+06
5.43116e+06
5.23104e+06
5.03351e+06
4.83846e+06
3.80827e+07
3.80789e+07
3.80714e+07
3.80602e+07
3.80453e+07
3.80266e+07
3.80041e+07
3.79777e+07
3.79474e+07
3.79133e+07
3.78752e+07
3.78332e+07
3.77872e+07
3.77374e+07
3.76836e+07
3.7626e+07
3.75645e+07
3.74992e+07
3.74302e+07
3.73573e+07
3.72808e+07
3.72006e+07
3.71168e+07
3.70294e+07
3.69386e+07
3.68442e+07
3.67464e+07
3.66453e+07
3.65409e+07
3.64333e+07
3.63224e+07
3.62085e+07
3.60915e+07
3.59714e+07
3.58485e+07
3.57226e+07
3.55939e+07
3.54624e+07
3.53282e+07
3.51913e+07
3.50518e+07
3.49097e+07
3.47651e+07
3.4618e+07
3.44684e+07
3.43165e+07
3.41622e+07
3.40056e+07
3.38468e+07
3.36858e+07
3.35226e+07
3.33572e+07
3.31898e+07
3.30203e+07
3.28488e+07
3.26754e+07
3.25e+07
3.23227e+07
3.21436e+07
3.19626e+07
3.17799e+07
3.15954e+07
3.14092e+07
3.12213e+07
3.10317e+07
3.08405e+07
3.06477e+07
3.04534e+07
3.02575e+07
3.00602e+07
2.98613e+07
2.9661e+07
2.94593e+07
2.92562e+07
2.90518e+07
2.8846e+07
2.86389e+07
2.84305e+07
2.82208e+07
2.80099e+07
2.77978e+07
2.75845e+07
2.73701e+07
2.71545e+07
2.69378e+07
2.672e+07
2.65011e+07
2.62811e+07
2.60602e+07
2.58382e+07
2.56152e+07
2.53913e+07
2.51664e+07
2.49406e+07
2.47138e+07
2.44862e+07
2.42578e+07
2.40285e+07
2.37983e+07
2.35674e+07
2.33357e+07
2.31032e+07
2.287e+07
2.2636e+07
2.24014e+07
2.2166e+07
2.193e+07
2.16934e+07
2.14561e+07
2.12183e+07
2.09799e+07
2.07409e+07
2.05014e+07
2.02614e+07
2.00209e+07
1.97799e+07
1.95385e+07
1.92966e+07
1.90544e+07
1.88118e+07
1.85689e+07
1.83256e+07
1.8082e+07
1.78382e+07
1.75941e+07
1.73498e+07
1.71053e+07
1.68606e+07
1.66158e+07
1.63709e+07
1.61259e+07
1.58809e+07
1.56358e+07
1.53908e+07
1.51458e+07
1.49008e+07
1.4656e+07
1.44113e+07
1.41668e+07
1.39225e+07
1.36784e+07
1.34346e+07
1.31911e+07
1.2948e+07
1.27053e+07
1.2463e+07
1.22212e+07
1.19799e+07
1.17391e+07
1.1499e+07
1.12595e+07
1.10207e+07
1.07826e+07
1.05453e+07
1.03088e+07
1.00732e+07
9.83848e+06
9.60477e+06
9.37209e+06
9.14049e+06
8.91003e+06
8.68077e+06
8.45275e+06
8.22604e+06
8.00071e+06
7.77681e+06
7.55441e+06
7.33358e+06
7.1144e+06
6.89693e+06
6.68126e+06
6.46747e+06
6.25565e+06
6.04589e+06
5.8383e+06
5.63298e+06
5.43002e+06
5.22949e+06
5.03141e+06
4.83563e+06
3.82004e+07
3.81962e+07
3.81882e+07
3.81764e+07
3.81606e+07
3.81409e+07
3.81172e+07
3.80894e+07
3.80576e+07
3.80218e+07
3.79818e+07
3.79379e+07
3.78898e+07
3.78378e+07
3.77818e+07
3.77218e+07
3.76579e+07
3.75901e+07
3.75185e+07
3.74431e+07
3.7364e+07
3.72812e+07
3.71947e+07
3.71048e+07
3.70113e+07
3.69143e+07
3.6814e+07
3.67104e+07
3.66035e+07
3.64934e+07
3.63801e+07
3.62638e+07
3.61445e+07
3.60222e+07
3.58971e+07
3.57691e+07
3.56383e+07
3.55048e+07
3.53687e+07
3.523e+07
3.50887e+07
3.49448e+07
3.47986e+07
3.46498e+07
3.44988e+07
3.43454e+07
3.41897e+07
3.40317e+07
3.38716e+07
3.37093e+07
3.35449e+07
3.33784e+07
3.32099e+07
3.30394e+07
3.28669e+07
3.26925e+07
3.25162e+07
3.2338e+07
3.21581e+07
3.19763e+07
3.17928e+07
3.16076e+07
3.14207e+07
3.12321e+07
3.10419e+07
3.08502e+07
3.06568e+07
3.0462e+07
3.02656e+07
3.00678e+07
2.98685e+07
2.96677e+07
2.94656e+07
2.92622e+07
2.90573e+07
2.88512e+07
2.86438e+07
2.84351e+07
2.82251e+07
2.8014e+07
2.78016e+07
2.75881e+07
2.73734e+07
2.71576e+07
2.69406e+07
2.67226e+07
2.65036e+07
2.62835e+07
2.60623e+07
2.58402e+07
2.56171e+07
2.5393e+07
2.5168e+07
2.49421e+07
2.47152e+07
2.44875e+07
2.4259e+07
2.40296e+07
2.37994e+07
2.35683e+07
2.33366e+07
2.3104e+07
2.28707e+07
2.26367e+07
2.2402e+07
2.21666e+07
2.19306e+07
2.16939e+07
2.14566e+07
2.12187e+07
2.09803e+07
2.07413e+07
2.05017e+07
2.02617e+07
2.00212e+07
1.97802e+07
1.95387e+07
1.92969e+07
1.90546e+07
1.8812e+07
1.8569e+07
1.83257e+07
1.80822e+07
1.78383e+07
1.75942e+07
1.73499e+07
1.71054e+07
1.68607e+07
1.66159e+07
1.6371e+07
1.6126e+07
1.58809e+07
1.56359e+07
1.53908e+07
1.51458e+07
1.49009e+07
1.4656e+07
1.44113e+07
1.41668e+07
1.39225e+07
1.36784e+07
1.34346e+07
1.31912e+07
1.2948e+07
1.27053e+07
1.2463e+07
1.22212e+07
1.19799e+07
1.17391e+07
1.1499e+07
1.12595e+07
1.10207e+07
1.07826e+07
1.05453e+07
1.03088e+07
1.00732e+07
9.83847e+06
9.60476e+06
9.37208e+06
9.14047e+06
8.91001e+06
8.68073e+06
8.45271e+06
8.22599e+06
8.00064e+06
7.77673e+06
7.55431e+06
7.33346e+06
7.11424e+06
6.89673e+06
6.681e+06
6.46714e+06
6.25523e+06
6.04536e+06
5.83761e+06
5.63207e+06
5.42882e+06
5.22791e+06
5.02932e+06
4.8329e+06
3.83353e+07
3.83308e+07
3.83222e+07
3.83096e+07
3.82928e+07
3.82718e+07
3.82466e+07
3.82172e+07
3.81835e+07
3.81456e+07
3.81034e+07
3.80571e+07
3.80066e+07
3.79519e+07
3.78932e+07
3.78304e+07
3.77636e+07
3.76929e+07
3.76183e+07
3.75399e+07
3.74578e+07
3.7372e+07
3.72825e+07
3.71895e+07
3.70931e+07
3.69931e+07
3.68899e+07
3.67833e+07
3.66736e+07
3.65607e+07
3.64447e+07
3.63257e+07
3.62037e+07
3.60789e+07
3.59513e+07
3.58209e+07
3.56878e+07
3.55521e+07
3.54138e+07
3.5273e+07
3.51297e+07
3.49839e+07
3.48358e+07
3.46853e+07
3.45325e+07
3.43774e+07
3.42202e+07
3.40607e+07
3.38991e+07
3.37354e+07
3.35697e+07
3.34019e+07
3.32322e+07
3.30605e+07
3.28869e+07
3.27114e+07
3.25341e+07
3.2355e+07
3.21741e+07
3.19915e+07
3.18071e+07
3.16211e+07
3.14335e+07
3.12442e+07
3.10533e+07
3.08609e+07
3.06669e+07
3.04715e+07
3.02746e+07
3.00762e+07
2.98764e+07
2.96752e+07
2.94726e+07
2.92687e+07
2.90635e+07
2.8857e+07
2.86492e+07
2.84402e+07
2.82299e+07
2.80184e+07
2.78058e+07
2.7592e+07
2.7377e+07
2.7161e+07
2.69438e+07
2.67256e+07
2.65063e+07
2.6286e+07
2.60647e+07
2.58424e+07
2.56192e+07
2.5395e+07
2.51698e+07
2.49438e+07
2.47168e+07
2.4489e+07
2.42603e+07
2.40308e+07
2.38005e+07
2.35694e+07
2.33375e+07
2.31049e+07
2.28716e+07
2.26375e+07
2.24027e+07
2.21673e+07
2.19312e+07
2.16945e+07
2.14571e+07
2.12192e+07
2.09807e+07
2.07417e+07
2.05021e+07
2.0262e+07
2.00215e+07
1.97804e+07
1.9539e+07
1.92971e+07
1.90548e+07
1.88122e+07
1.85692e+07
1.83259e+07
1.80823e+07
1.78385e+07
1.75943e+07
1.735e+07
1.71055e+07
1.68608e+07
1.6616e+07
1.63711e+07
1.61261e+07
1.5881e+07
1.56359e+07
1.53909e+07
1.51458e+07
1.49009e+07
1.46561e+07
1.44114e+07
1.41668e+07
1.39225e+07
1.36784e+07
1.34347e+07
1.31912e+07
1.29481e+07
1.27053e+07
1.2463e+07
1.22212e+07
1.19799e+07
1.17392e+07
1.1499e+07
1.12595e+07
1.10207e+07
1.07826e+07
1.05453e+07
1.03088e+07
1.00732e+07
9.83846e+06
9.60475e+06
9.37206e+06
9.14045e+06
8.90998e+06
8.6807e+06
8.45266e+06
8.22594e+06
8.00057e+06
7.77664e+06
7.5542e+06
7.33332e+06
7.11407e+06
6.89651e+06
6.68073e+06
6.4668e+06
6.25479e+06
6.04479e+06
5.83688e+06
5.63113e+06
5.4276e+06
5.22632e+06
5.02726e+06
4.83028e+06
3.84886e+07
3.84837e+07
3.84744e+07
3.84608e+07
3.84427e+07
3.84202e+07
3.83932e+07
3.83618e+07
3.83258e+07
3.82854e+07
3.82407e+07
3.81915e+07
3.8138e+07
3.80802e+07
3.80183e+07
3.79522e+07
3.78821e+07
3.78079e+07
3.77299e+07
3.76481e+07
3.75625e+07
3.74732e+07
3.73803e+07
3.72838e+07
3.71839e+07
3.70806e+07
3.6974e+07
3.68641e+07
3.67511e+07
3.6635e+07
3.6516e+07
3.63939e+07
3.6269e+07
3.61414e+07
3.6011e+07
3.58779e+07
3.57422e+07
3.5604e+07
3.54633e+07
3.53202e+07
3.51747e+07
3.50268e+07
3.48766e+07
3.47241e+07
3.45694e+07
3.44126e+07
3.42536e+07
3.40925e+07
3.39293e+07
3.37641e+07
3.35969e+07
3.34277e+07
3.32566e+07
3.30837e+07
3.29088e+07
3.27322e+07
3.25538e+07
3.23736e+07
3.21917e+07
3.20081e+07
3.18228e+07
3.1636e+07
3.14475e+07
3.12574e+07
3.10658e+07
3.08726e+07
3.0678e+07
3.04819e+07
3.02844e+07
3.00854e+07
2.98851e+07
2.96833e+07
2.94803e+07
2.92759e+07
2.90703e+07
2.88633e+07
2.86551e+07
2.84457e+07
2.82351e+07
2.80233e+07
2.78103e+07
2.75962e+07
2.7381e+07
2.71647e+07
2.69473e+07
2.67289e+07
2.65094e+07
2.62889e+07
2.60674e+07
2.58449e+07
2.56215e+07
2.53971e+07
2.51718e+07
2.49456e+07
2.47185e+07
2.44906e+07
2.42618e+07
2.40322e+07
2.38018e+07
2.35706e+07
2.33386e+07
2.31059e+07
2.28725e+07
2.26383e+07
2.24035e+07
2.2168e+07
2.19319e+07
2.16951e+07
2.14577e+07
2.12197e+07