/*--------------------------------*- C++ -*----------------------------------*\
| =========                 |                                                 |
| \\      /  F ield         | OpenFOAM: The Open Source CFD Toolbox           |
|  \\    /   O peration     | Version:  2.1.x                                 |
|   \\  /    A nd           | Web:      www.OpenFOAM.org                      |
|    \\/     M anipulation  |                                                 |
\*---------------------------------------------------------------------------*/
FoamFile
{
    version     2.0;
    format      ascii;
    class       volVectorField;
    location    "0.007";
    object      U;
}
// * * * * * * * * * * * * * * * * * * * * * * * * * * * * * * * * * * * * * //

dimensions      [0 1 -1 0 0 0 0];

internalField   nonuniform List<vector> 
12225
(
(7.08402 0.378655 0)
(4.42215 0.179872 0)
(3.07441 0.0255223 0)
(2.4484 -0.0111441 0)
(2.1559 -0.0116547 0)
(2.01608 -0.00794045 0)
(1.93006 -0.00584124 0)
(1.88674 -0.00307217 0)
(1.83165 -0.000782859 0)
(1.80866 -0.00249672 0)
(1.77152 -0.00243151 0)
(1.79031 -0.00594011 0)
(1.76593 -0.00361195 0)
(1.80781 -0.00467298 0)
(1.74608 -0.00105714 0)
(1.81509 -8.7977e-05 0)
(1.75494 -0.00228235 0)
(1.84741 -0.0483697 0)
(9.70476 1.00704 0)
(8.97736 0.831702 0)
(7.89211 0.423582 0)
(6.96095 0.211778 0)
(6.27706 0.111665 0)
(5.85996 0.0612733 0)
(5.55726 0.0335747 0)
(5.3789 0.0265863 0)
(5.19103 0.024302 0)
(5.11543 0.017767 0)
(4.98504 0.0110749 0)
(5.01619 0.00245439 0)
(4.89354 -4.17773e-05 0)
(4.98625 0.00595422 0)
(4.82125 0.00997277 0)
(4.94161 -0.0107304 0)
(4.86103 -0.0101152 0)
(4.97516 -0.0519372 0)
(10.2585 0.744172 0)
(10.698 0.860105 0)
(10.4982 0.555806 0)
(10.0183 0.379375 0)
(9.45485 0.279913 0)
(9.05865 0.201616 0)
(8.69973 0.137917 0)
(8.46156 0.108654 0)
(8.20364 0.0852707 0)
(8.06717 0.0557555 0)
(7.87291 0.0327682 0)
(7.8481 0.0127894 0)
(7.71461 0.0131793 0)
(7.72773 0.00721425 0)
(7.61569 0.0277105 0)
(7.61756 -0.00468075 0)
(7.64639 -0.0421684 0)
(7.57687 -0.0991455 0)
(9.87393 0.644093 0)
(10.5823 0.833592 0)
(10.8421 0.578801 0)
(10.9471 0.415562 0)
(10.885 0.33819 0)
(10.8397 0.269314 0)
(10.7384 0.215893 0)
(10.6175 0.194556 0)
(10.4832 0.178431 0)
(10.3639 0.148021 0)
(10.2171 0.113144 0)
(10.1122 0.0660459 0)
(10.0327 0.0587264 0)
(9.99641 0.0580889 0)
(9.92125 0.0649443 0)
(9.80836 0.00556614 0)
(9.931 -0.0518765 0)
(9.86314 -0.0415688 0)
(9.96253 0.439831 0)
(10.6679 0.700332 0)
(11.0978 0.537571 0)
(11.3181 0.364224 0)
(11.3415 0.295013 0)
(11.2724 0.2315 0)
(11.1835 0.192883 0)
(11.0785 0.183577 0)
(11.0675 0.162889 0)
(11.0648 0.134972 0)
(11.0795 0.115438 0)
(11.0719 0.0711734 0)
(11.1117 0.0393431 0)
(11.1487 0.04995 0)
(11.1059 0.0913453 0)
(11.0298 0.02339 0)
(11.1287 -0.128958 0)
(11.0518 -0.068121 0)
(10.3554 0.291499 0)
(10.56 0.552767 0)
(10.7903 0.486837 0)
(10.9585 0.336033 0)
(11.1039 0.301743 0)
(11.2154 0.280869 0)
(11.2464 0.269766 0)
(11.2339 0.25025 0)
(11.2174 0.201296 0)
(11.1618 0.165376 0)
(11.1583 0.132576 0)
(11.1937 0.0625551 0)
(11.221 0.0278149 0)
(11.2165 0.0875003 0)
(11.2291 0.121776 0)
(11.3132 0.00307626 0)
(11.2705 -0.10076 0)
(11.0962 -0.0572011 0)
(9.98091 0.3681 0)
(10.2912 0.542147 0)
(10.6094 0.447987 0)
(10.7866 0.272287 0)
(10.8653 0.190334 0)
(10.9213 0.160071 0)
(10.9389 0.158054 0)
(10.9417 0.175958 0)
(10.9304 0.173898 0)
(10.922 0.141387 0)
(10.955 0.0862899 0)
(11.0047 0.0218514 0)
(10.9934 0.00557982 0)
(11.0136 0.0238486 0)
(11.1164 -0.00606933 0)
(11.1146 -0.0100748 0)
(10.9777 0.00675944 0)
(11.0473 -0.0780988 0)
(10.0349 0.222492 0)
(10.3402 0.422937 0)
(10.5099 0.401239 0)
(10.5631 0.304939 0)
(10.5859 0.239514 0)
(10.645 0.218436 0)
(10.6863 0.219397 0)
(10.7357 0.229385 0)
(10.7917 0.196621 0)
(10.8443 0.151078 0)
(10.8698 0.098927 0)
(10.8602 0.0406533 0)
(10.8038 0.015133 0)
(10.8002 0.0250923 0)
(10.7738 0.0569409 0)
(10.6921 0.0864282 0)
(10.7299 -0.0304884 0)
(10.8569 -0.209649 0)
(9.87879 0.0916712 0)
(10.1219 0.315408 0)
(10.3455 0.358384 0)
(10.4747 0.288662 0)
(10.531 0.197161 0)
(10.5806 0.138939 0)
(10.6082 0.124502 0)
(10.6798 0.138964 0)
(10.7586 0.137963 0)
(10.8216 0.116231 0)
(10.8284 0.0949797 0)
(10.8034 0.0643252 0)
(10.718 0.0340044 0)
(10.6365 0.0399741 0)
(10.5961 0.0482952 0)
(10.647 0.0163264 0)
(10.6802 -0.0875209 0)
(10.5801 -0.187514 0)
(10.2496 0.222718 0)
(10.232 0.33689 0)
(10.3279 0.322326 0)
(10.4285 0.262874 0)
(10.4836 0.222475 0)
(10.5015 0.197422 0)
(10.4788 0.166296 0)
(10.4801 0.141885 0)
(10.5092 0.112555 0)
(10.5649 0.0950537 0)
(10.5956 0.0933035 0)
(10.6397 0.0837326 0)
(10.6561 0.0780117 0)
(10.6815 0.0859957 0)
(10.7105 0.0494164 0)
(10.7499 0.0302473 0)
(10.7768 0.000845083 0)
(10.7681 -0.231201 0)
(9.78692 0.102668 0)
(10.1204 0.233013 0)
(10.3069 0.269067 0)
(10.3554 0.247966 0)
(10.3915 0.210165 0)
(10.4852 0.169694 0)
(10.6008 0.130209 0)
(10.7005 0.113127 0)
(10.7607 0.0925255 0)
(10.793 0.070312 0)
(10.7798 0.0527108 0)
(10.7722 0.0357799 0)
(10.756 0.0111737 0)
(10.7548 0.00213537 0)
(10.7813 0.00451869 0)
(10.8228 -0.0254402 0)
(10.8582 -0.126399 0)
(10.8899 -0.243976 0)
(9.93816 -0.00311521 0)
(9.9489 0.120742 0)
(10.0435 0.210411 0)
(10.1791 0.214045 0)
(10.3028 0.168454 0)
(10.4107 0.100205 0)
(10.4646 0.0415295 0)
(10.4722 0.0250428 0)
(10.4536 0.0388134 0)
(10.4381 0.0657955 0)
(10.4329 0.0859859 0)
(10.4585 0.0914611 0)
(10.5115 0.0757518 0)
(10.5795 0.0525668 0)
(10.6548 0.0133276 0)
(10.7423 -0.0398777 0)
(10.7599 -0.0961698 0)
(10.7 -0.178569 0)
(10.1832 0.202155 0)
(10.1247 0.176488 0)
(10.168 0.123741 0)
(10.2594 0.102645 0)
(10.3712 0.102487 0)
(10.4756 0.111478 0)
(10.534 0.126985 0)
(10.5443 0.143642 0)
(10.5312 0.12887 0)
(10.5357 0.0742694 0)
(10.5448 0.00416291 0)
(10.5546 -0.0617589 0)
(10.579 -0.117369 0)
(10.6047 -0.144093 0)
(10.6311 -0.153657 0)
(10.6464 -0.135811 0)
(10.6187 -0.0702141 0)
(10.54 -0.191253 0)
(10.132 0.112151 0)
(10.2069 0.182614 0)
(10.2157 0.116915 0)
(10.1811 0.0769027 0)
(10.173 0.0297912 0)
(10.2315 -0.0123318 0)
(10.3416 -0.0178984 0)
(10.4522 0.00768667 0)
(10.5309 0.0415314 0)
(10.5794 0.0565899 0)
(10.5886 0.0616377 0)
(10.549 0.0571905 0)
(10.4954 0.0449155 0)
(10.4421 0.0119729 0)
(10.4002 -0.0273826 0)
(10.3743 0.00397679 0)
(10.3601 0.0334152 0)
(10.3556 -0.280348 0)
(9.91228 -0.0368079 0)
(9.9699 0.0401956 0)
(10.0938 0.0897117 0)
(10.2458 0.0975818 0)
(10.3019 0.0565696 0)
(10.3096 0.0058245 0)
(10.3044 -0.0174098 0)
(10.2894 -0.0119915 0)
(10.2766 0.00807226 0)
(10.3032 0.0161342 0)
(10.3583 0.0124633 0)
(10.4167 0.00116957 0)
(10.4653 -0.0272331 0)
(10.509 -0.0725188 0)
(10.5244 -0.10846 0)
(10.5273 -0.104379 0)
(10.5957 -0.086615 0)
(10.6259 -0.274593 0)
(10.0851 0.0821764 0)
(10.0259 0.000325452 0)
(10.0411 -0.0909166 0)
(10.0952 -0.101388 0)
(10.089 -0.0498176 0)
(10.0687 0.0126511 0)
(10.064 0.0472873 0)
(10.0798 0.04197 0)
(10.1193 0.0143999 0)
(10.1943 -0.0221956 0)
(10.2853 -0.0550511 0)
(10.3612 -0.0774669 0)
(10.4085 -0.0901679 0)
(10.432 -0.0795997 0)
(10.4231 -0.0682214 0)
(10.4186 -0.120811 0)
(10.4526 -0.101099 0)
(10.4649 0.19779 0)
(9.93686 0.251091 0)
(9.8925 0.108451 0)
(9.94739 -0.0191435 0)
(9.94681 -0.00483153 0)
(9.89189 0.051503 0)
(9.87357 0.0504373 0)
(9.90246 -0.0176506 0)
(9.94784 -0.109355 0)
(10.0245 -0.17715 0)
(10.1308 -0.205789 0)
(10.2482 -0.203037 0)
(10.3494 -0.186663 0)
(10.4168 -0.16221 0)
(10.4618 -0.137628 0)
(10.4907 -0.146148 0)
(10.491 -0.21093 0)
(10.422 -0.225122 0)
(10.422 -0.0373355 0)
(9.98512 -0.195283 0)
(10.0286 -0.0815744 0)
(10.0311 -0.0508066 0)
(10.0668 -0.0330515 0)
(10.1569 0.0173729 0)
(10.2506 0.0347199 0)
(10.3183 -0.0277187 0)
(10.3311 -0.145663 0)
(10.3053 -0.266872 0)
(10.2609 -0.347319 0)
(10.2234 -0.378664 0)
(10.2077 -0.351473 0)
(10.213 -0.288852 0)
(10.2407 -0.222319 0)
(10.2671 -0.140088 0)
(10.2786 0.000303049 0)
(10.2799 0.0193672 0)
(10.2616 -0.34532 0)
(10.0463 -0.0848515 0)
(10.0564 -0.0725112 0)
(10.0381 -0.0704376 0)
(10.0504 -0.13658 0)
(10.0975 -0.190849 0)
(10.1651 -0.175674 0)
(10.2318 -0.110405 0)
(10.2562 -0.0518484 0)
(10.2281 -0.0424807 0)
(10.1608 -0.0751796 0)
(10.0855 -0.135353 0)
(10.032 -0.197443 0)
(10.0162 -0.239696 0)
(10.0346 -0.251682 0)
(10.0784 -0.244788 0)
(10.1313 -0.275017 0)
(10.2038 -0.256214 0)
(10.2522 -0.0208944 0)
(10.0525 -0.204766 0)
(9.96718 -0.081904 0)
(10.0791 -0.0382952 0)
(10.191 -0.120231 0)
(10.2134 -0.18997 0)
(10.2008 -0.187969 0)
(10.2138 -0.13985 0)
(10.265 -0.0986314 0)
(10.3377 -0.0962437 0)
(10.3999 -0.127216 0)
(10.4268 -0.178229 0)
(10.4072 -0.233633 0)
(10.3593 -0.276648 0)
(10.3048 -0.307642 0)
(10.2609 -0.314088 0)
(10.2291 -0.280566 0)
(10.1938 -0.252437 0)
(10.1871 -0.313381 0)
(10.1954 -0.0373992 0)
(10.1433 -0.102279 0)
(10.142 -0.211041 0)
(10.2053 -0.241924 0)
(10.3002 -0.212513 0)
(10.3687 -0.171368 0)
(10.405 -0.152491 0)
(10.4148 -0.157913 0)
(10.4264 -0.168443 0)
(10.446 -0.167607 0)
(10.462 -0.152698 0)
(10.4661 -0.135757 0)
(10.4577 -0.12821 0)
(10.4439 -0.137362 0)
(10.4299 -0.162578 0)
(10.4167 -0.202722 0)
(10.408 -0.240494 0)
(10.3895 -0.241501 0)
(9.86105 0.0152243 0)
(9.9863 -0.0997924 0)
(10.0544 -0.212557 0)
(10.0498 -0.28822 0)
(10.0666 -0.302615 0)
(10.1284 -0.255171 0)
(10.2106 -0.183492 0)
(10.2833 -0.13562 0)
(10.3645 -0.13153 0)
(10.4535 -0.160706 0)
(10.5382 -0.20297 0)
(10.6022 -0.239047 0)
(10.6449 -0.258776 0)
(10.6672 -0.263346 0)
(10.6793 -0.25337 0)
(10.6743 -0.236709 0)
(10.6524 -0.21698 0)
(10.614 -0.20901 0)
(10.0002 -0.163195 0)
(10.0863 -0.156605 0)
(10.1909 -0.228373 0)
(10.2529 -0.295925 0)
(10.2696 -0.296218 0)
(10.2923 -0.270324 0)
(10.3487 -0.257408 0)
(10.4135 -0.272819 0)
(10.4805 -0.295083 0)
(10.5384 -0.30874 0)
(10.5752 -0.304173 0)
(10.5852 -0.280032 0)
(10.5804 -0.246942 0)
(10.5693 -0.21493 0)
(10.5668 -0.192067 0)
(10.571 -0.182007 0)
(10.5836 -0.183718 0)
(10.5929 -0.189182 0)
(9.86407 -0.132159 0)
(10.1109 -0.268454 0)
(10.3052 -0.336781 0)
(10.4119 -0.320581 0)
(10.4487 -0.281476 0)
(10.4954 -0.260731 0)
(10.5788 -0.264317 0)
(10.6503 -0.277718 0)
(10.6869 -0.284943 0)
(10.6929 -0.284329 0)
(10.6761 -0.280934 0)
(10.6556 -0.274893 0)
(10.6478 -0.264095 0)
(10.6557 -0.253124 0)
(10.6855 -0.242379 0)
(10.7197 -0.233361 0)
(10.7546 -0.227612 0)
(10.7722 -0.22332 0)
(9.94239 -0.327426 0)
(10.1524 -0.435322 0)
(10.424 -0.421447 0)
(10.65 -0.382416 0)
(10.7598 -0.333593 0)
(10.7903 -0.311971 0)
(10.794 -0.323716 0)
(10.7886 -0.332011 0)
(10.7836 -0.319182 0)
(10.7862 -0.295394 0)
(10.8027 -0.274952 0)
(10.8209 -0.266236 0)
(10.8403 -0.265526 0)
(10.8541 -0.269815 0)
(10.8636 -0.273225 0)
(10.8703 -0.270624 0)
(10.8743 -0.26215 0)
(10.8745 -0.245746 0)
(10.1436 -0.247125 0)
(10.3205 -0.572736 0)
(10.5533 -0.562789 0)
(10.766 -0.423144 0)
(10.9173 -0.30763 0)
(11.022 -0.274307 0)
(11.093 -0.291962 0)
(11.1148 -0.316809 0)
(11.0896 -0.327057 0)
(11.0411 -0.324835 0)
(10.9911 -0.315993 0)
(10.9494 -0.301925 0)
(10.9121 -0.284977 0)
(10.8774 -0.267755 0)
(10.8367 -0.251646 0)
(10.7961 -0.239058 0)
(10.7516 -0.230341 0)
(10.7108 -0.225254 0)
(10.013 -0.323012 0)
(10.2786 -0.623057 0)
(10.6166 -0.639472 0)
(10.906 -0.514705 0)
(11.1005 -0.429048 0)
(11.1916 -0.398731 0)
(11.2024 -0.3802 0)
(11.1385 -0.345198 0)
(11.0265 -0.299531 0)
(10.8948 -0.261607 0)
(10.7736 -0.241318 0)
(10.668 -0.23438 0)
(10.584 -0.233869 0)
(10.5087 -0.234158 0)
(10.4442 -0.230584 0)
(10.3797 -0.225186 0)
(10.3193 -0.217106 0)
(10.2546 -0.208866 0)
(9.77576 -0.420455 0)
(10.417 -0.834393 0)
(10.6844 -0.758486 0)
(10.7222 -0.545527 0)
(10.5975 -0.414063 0)
(10.3758 -0.348706 0)
(10.1135 -0.30195 0)
(9.84816 -0.253003 0)
(9.6021 -0.210628 0)
(9.38588 -0.183803 0)
(9.19671 -0.17552 0)
(9.02159 -0.173266 0)
(8.85809 -0.173287 0)
(8.69403 -0.167725 0)
(8.54501 -0.161477 0)
(8.39532 -0.151938 0)
(8.2655 -0.144756 0)
(8.1297 -0.137528 0)
(10.0453 -0.6238 0)
(10.0385 -0.955228 0)
(9.36912 -0.77958 0)
(8.6212 -0.534672 0)
(7.94665 -0.351858 0)
(7.38054 -0.231308 0)
(6.91601 -0.154869 0)
(6.55517 -0.105206 0)
(6.27287 -0.0745969 0)
(6.0529 -0.0583164 0)
(5.8616 -0.0534507 0)
(5.69404 -0.0519256 0)
(5.53327 -0.0531919 0)
(5.38686 -0.0515253 0)
(5.25203 -0.0534876 0)
(5.12429 -0.0506967 0)
(5.01698 -0.0561027 0)
(4.89401 -0.0523582 0)
(8.43403 -0.493948 0)
(6.12149 -0.378876 0)
(4.37799 -0.131403 0)
(3.33561 -0.012922 0)
(2.76157 0.0279263 0)
(2.44293 0.0350099 0)
(2.25284 0.0281098 0)
(2.13242 0.0200388 0)
(2.04876 0.0145869 0)
(1.98859 0.0107825 0)
(1.93384 0.00655975 0)
(1.88203 0.00269125 0)
(1.82348 -0.000315699 0)
(1.76961 -0.00203481 0)
(1.70894 -0.00360821 0)
(1.65923 -0.00271541 0)
(1.59894 -0.00975747 0)
(1.53717 0.00450055 0)
(-0.0533612 0.122357 0)
(-0.178716 0.130833 0)
(-0.304946 0.129406 0)
(-0.432856 0.128127 0)
(-0.561247 0.126875 0)
(-0.690881 0.125726 0)
(-0.821177 0.125078 1.80666e-20)
(-0.953031 0.125001 -1.79107e-20)
(-1.08624 0.125569 0)
(-1.22114 0.126657 -1.75938e-20)
(-1.35782 0.128153 0)
(-1.49663 0.129918 0)
(-1.6372 0.13173 0)
(-1.77927 0.133327 1.69476e-20)
(-1.9224 0.134535 0)
(-2.06586 0.135144 0)
(-2.20876 0.134907 -1.64665e-20)
(-2.3501 0.133617 0)
(-2.48856 0.131024 0)
(-2.62241 0.126983 0)
(-2.75014 0.121473 1.58692e-20)
(-2.86991 0.114293 0)
(-2.97988 0.105313 1.56097e-20)
(-3.07796 0.0947433 0)
(-3.16229 0.0824114 0)
(-3.23076 0.0685068 1.52976e-20)
(-3.28165 0.0531307 0)
(-3.31311 0.0365549 -1.51536e-20)
(-3.32372 0.0189711 0)
(-3.31198 0.000969822 1.50664e-20)
(-3.27688 -0.0172478 0)
(-3.21847 -0.0353591 0)
(-3.13699 -0.0528439 0)
(-3.03323 -0.0693855 0)
(-2.90838 -0.084562 0)
(-2.76403 -0.0981322 -1.50926e-20)
(-2.60213 -0.109783 0)
(-2.42469 -0.119411 3.03002e-20)
(-2.23399 -0.126986 0)
(-2.03284 -0.132534 -3.04063e-20)
(-1.82354 -0.135798 0)
(-1.60805 -0.137137 0)
(-1.38892 -0.136753 3.04872e-20)
(-1.16843 -0.134569 0)
(-0.948332 -0.13085 3.04625e-20)
(-0.730318 -0.126178 -3.04232e-20)
(-0.516385 -0.120092 0)
(-0.308163 -0.113466 -3.02897e-20)
(-0.106122 -0.106283 -3.01961e-20)
(0.0879134 -0.0988747 0)
(0.273483 -0.090699 0)
(0.45114 -0.0823953 0)
(0.619581 -0.0740615 0)
(0.778438 -0.0657943 0)
(0.927475 -0.0576887 2.92922e-20)
(1.06658 -0.0498318 0)
(1.19573 -0.0422935 -2.88956e-20)
(1.315 -0.0351271 0)
(1.42453 -0.0283777 0)
(1.52455 -0.0220894 2.82378e-20)
(1.61535 -0.0162975 0)
(1.69728 -0.0110172 -2.77686e-20)
(1.77073 -0.00625224 0)
(1.83612 -0.00199802 0)
(1.89392 0.00174297 0)
(1.94459 0.0049871 2.67855e-20)
(1.98864 0.0077628 0)
(2.02655 0.0100947 0)
(2.0588 0.0120223 2.60284e-20)
(2.0859 0.0135589 0)
(2.1083 0.0147513 2.5521e-20)
(2.12643 0.0156551 0)
(2.14075 0.0162582 0)
(2.15165 0.0166312 0)
(2.15948 0.0168591 -2.45111e-20)
(2.16463 0.016867 0)
(2.16744 0.0166211 0)
(2.16821 0.0162433 -2.37644e-20)
(2.16722 0.0158194 -2.35184e-20)
(2.16469 0.0153595 0)
(2.16082 0.0148628 -2.30311e-20)
(2.15579 0.014344 0)
(2.14978 0.0138069 -4.51011e-20)
(2.14291 0.0132599 0)
(2.13532 0.0127219 -4.41542e-20)
(2.12712 0.0121807 0)
(2.11841 0.0116332 4.32219e-20)
(2.10927 0.0111309 0)
(2.09974 0.0106947 0)
(2.08989 0.0102707 0)
(2.0798 0.00985149 -4.14009e-20)
(2.06954 0.00944124 0)
(2.05913 0.00904268 4.05123e-20)
(2.04863 0.0086634 0)
(2.03806 0.00830409 -3.9638e-20)
(2.02745 0.00795606 -3.92061e-20)
(2.01682 0.00761967 -3.87777e-20)
(2.0062 0.00729973 0)
(1.99559 0.00699375 0)
(1.98502 0.00669862 0)
(1.97449 0.00641709 0)
(1.964 0.00615039 0)
(1.95358 0.00589819 0)
(1.94323 0.00566061 0)
(1.93295 0.00543633 0)
(1.92275 0.00522239 3.5072e-20)
(1.91262 0.00501735 3.46762e-20)
(1.90259 0.00482235 0)
(1.89263 0.0046386 0)
(1.88276 0.0044648 0)
(1.87298 0.00429849 3.31228e-20)
(1.86327 0.00413782 0)
(1.85365 0.00398286 0)
(1.84412 0.0038354 0)
(1.83467 0.00369628 0)
(1.8253 0.00356417 -3.12456e-20)
(1.81601 0.00343674 0)
(1.80681 0.00331282 0)
(1.79768 0.00319302 3.0152e-20)
(1.78863 0.00307857 -2.97927e-20)
(1.77967 0.00296984 0)
(1.77077 0.00286594 -2.90819e-20)
(1.76195 0.00276557 0)
(1.75321 0.00266807 2.83811e-20)
(1.74454 0.00257353 0)
(1.73594 0.00248224 0)
(1.72741 0.00239418 0)
(1.71895 0.00230941 0)
(1.71056 0.00222808 0)
(1.70224 0.00215004 -5.26737e-20)
(1.69398 0.00207478 -5.20086e-20)
(1.68578 0.00200154 0)
(1.67765 0.00192976 0)
(1.66958 0.00185951 0)
(1.66157 0.00179159 4.93933e-20)
(1.65362 0.0017267 0)
(1.64573 0.0016648 0)
(1.6379 0.00160501 0)
(1.63012 0.0015462 4.68473e-20)
(1.6224 0.00148786 -4.62213e-20)
(1.61473 0.0014306 0)
(1.60712 0.00137569 0)
(1.59956 0.0013239 -4.43678e-20)
(1.59206 0.0012747 -4.37579e-20)
(1.5846 0.00122684 0)
(1.57719 0.0011795 0)
(1.56983 0.00113271 4.19519e-20)
(1.56252 0.00108732 -4.13576e-20)
(1.55526 0.00104434 0)
(1.54804 0.00100422 0)
(1.54086 0.000966618 -3.9597e-20)
(1.53371 0.000930478 0)
(1.52659 0.000895578 0)
(1.51951 0.000861476 -3.78694e-20)
(1.51245 0.000830968 0)
(1.50542 0.000800196 -3.67355e-20)
(1.49837 0.000779223 0)
(1.49138 0.00074899 0)
(1.48427 0.000748783 0)
(1.47733 0.000700836 3.45095e-20)
(1.46995 0.000761068 0)
(1.46324 0.000627027 0)
(1.45504 0.000878815 0)
(1.44916 0.000454302 0)
(1.43886 0.00121011 0)
(1.43522 0.000102034 0)
(1.42043 0.00181087 3.07454e-20)
(1.42113 -0.000320931 3.02243e-20)
(1.3991 0.00247887 0)
(1.40512 -0.000317045 0)
(1.37474 0.00271322 0)
(1.38402 0.00063098 -2.81715e-20)
(1.34575 0.00260422 0)
(1.35444 0.00222363 5.43529e-20)
(1.30712 0.00327845 -5.33716e-20)
(1.30841 0.00455653 -5.24175e-20)
(1.25359 0.00567437 5.14704e-20)
(1.2208 0.00730993 -5.05568e-20)
(1.18813 0.0180411 4.96696e-20)
(0.991618 -0.00712679 0)
(-0.0497741 0.372378 0)
(-0.188864 0.412448 0)
(-0.323594 0.411091 -3.73246e-20)
(-0.462059 0.414133 0)
(-0.601481 0.41488 3.67327e-20)
(-0.744118 0.416488 3.64296e-20)
(-0.888293 0.417739 1.80502e-20)
(-1.03522 0.419153 1.7917e-20)
(-1.18423 0.420909 0)
(-1.3352 0.422795 1.76022e-20)
(-1.48758 0.42448 0)
(-1.64143 0.42574 0)
(-1.79597 0.426041 -3.42011e-20)
(-1.95073 0.424876 -1.69603e-20)
(-2.10498 0.421901 3.35459e-20)
(-2.2579 0.416525 3.32199e-20)
(-2.40854 0.408325 1.6482e-20)
(-2.5557 0.396731 0)
(-2.69798 0.381458 0)
(-2.83382 0.362003 0)
(-2.96202 0.338128 1.57906e-20)
(-3.08033 0.30951 0)
(-3.18682 0.276119 -4.67756e-20)
(-3.28001 0.237898 0)
(-3.35763 0.194959 0)
(-3.41766 0.147713 -1.53169e-20)
(-3.45851 0.0963527 0)
(-3.47826 0.0417981 1.51721e-20)
(-3.47531 -0.0154092 3.01149e-20)
(-3.44837 -0.0740601 -1.50833e-20)
(-3.39696 -0.132977 0)
(-3.32088 -0.191093 0)
(-3.22028 -0.247029 0)
(-3.09628 -0.299767 3.00265e-20)
(-2.95017 -0.348192 3.00732e-20)
(-2.78369 -0.391725 1.51042e-20)
(-2.59893 -0.429374 0)
(-2.39817 -0.46107 -3.03208e-20)
(-2.18372 -0.486492 0)
(-1.95818 -0.505861 3.04249e-20)
(-1.72394 -0.518958 0)
(-1.48329 -0.526325 0)
(-1.23818 -0.528808 -3.05043e-20)
(-0.990685 -0.526284 0)
(-0.743217 -0.519781 -9.14098e-20)
(-0.49635 -0.509692 3.04408e-20)
(-0.252217 -0.496435 0)
(-0.0129566 -0.480799 3.03086e-20)
(0.221838 -0.463406 3.02159e-20)
(0.451406 -0.444727 0)
(0.674828 -0.424302 0)
(0.891752 -0.403014 0)
(1.10167 -0.381143 0)
(1.30422 -0.358934 0)
(1.49912 -0.336604 -2.93187e-20)
(1.68617 -0.314349 -5.82527e-20)
(1.86525 -0.292342 2.89244e-20)
(2.0363 -0.270732 0)
(2.19929 -0.24965 -5.69889e-20)
(2.35424 -0.229212 2.82681e-20)
(2.50121 -0.209529 0)
(2.64032 -0.190686 2.78019e-20)
(2.77172 -0.172735 0)
(2.89554 -0.155748 0)
(3.01201 -0.139739 5.4137e-20)
(3.12131 -0.12475 -2.68209e-20)
(3.22371 -0.1108 5.31358e-20)
(3.31943 -0.0978395 -5.2631e-20)
(3.40872 -0.0858988 -2.60643e-20)
(3.49189 -0.0749417 0)
(3.56915 -0.0649122 -2.55569e-20)
(3.64082 -0.0558104 0)
(3.70719 -0.0475746 0)
(3.76847 -0.0401253 0)
(3.82498 -0.0334557 -2.45429e-20)
(3.87703 -0.0275154 0)
(3.92478 -0.0222255 -4.80902e-20)
(3.96853 -0.0175462 7.13933e-20)
(4.00852 -0.0133979 2.35522e-20)
(4.04496 -0.00974414 0)
(4.07809 -0.00654115 2.30641e-20)
(4.10811 -0.00372509 0)
(4.13527 -0.00128701 4.51652e-20)
(4.15972 0.000841426 0)
(4.18169 0.00270039 4.42165e-20)
(4.20134 0.00427626 -8.74929e-20)
(4.21882 0.00565616 -4.32824e-20)
(4.23434 0.00685917 0)
(4.24802 0.00781778 0)
(4.25993 0.00859911 0)
(4.27022 0.00925954 4.14581e-20)
(4.27905 0.00981248 0)
(4.2865 0.0102589 -4.05679e-20)
(4.29269 0.010602 0)
(4.29772 0.0108689 1.19075e-19)
(4.30166 0.0110915 3.92594e-20)
(4.30459 0.0112579 3.88302e-20)
(4.30661 0.0113618 0)
(4.30776 0.0114322 0)
(4.30812 0.0114801 0)
(4.30773 0.0114983 0)
(4.30667 0.0114813 0)
(4.30497 0.0114344 7.26532e-20)
(4.30268 0.0113662 7.18416e-20)
(4.29984 0.0112836 0)
(4.29649 0.0111883 -3.51185e-20)
(4.29268 0.0110801 -3.47221e-20)
(4.28842 0.0109618 0)
(4.28376 0.0108382 -6.78769e-20)
(4.27872 0.0107117 0)
(4.27332 0.0105813 3.31667e-20)
(4.2676 0.0104454 0)
(4.26156 0.0103048 0)
(4.25524 0.010162 -6.40605e-20)
(4.24866 0.0100199 0)
(4.24182 0.00987895 3.12865e-20)
(4.23474 0.00973752 0)
(4.22744 0.00959387 0)
(4.21994 0.00944876 3.01918e-20)
(4.21224 0.00930449 2.98316e-20)
(4.20436 0.00916272 0)
(4.19631 0.00902332 -2.91203e-20)
(4.18809 0.00888478 0)
(4.17972 0.0087459 2.84186e-20)
(4.1712 0.00860713 5.61424e-20)
(4.16255 0.00846995 0)
(4.15376 0.00833538 0)
(4.14485 0.00820344 0)
(4.13582 0.00807367 0)
(4.12668 0.00794562 5.27424e-20)
(4.11743 0.00781935 1.5623e-19)
(4.10807 0.00769502 0)
(4.09861 0.00757237 0)
(4.08905 0.00745088 0)
(4.0794 0.0073306 -4.94578e-20)
(4.06966 0.00721229 0)
(4.05983 0.00709681 0)
(4.04991 0.00698422 9.50803e-20)
(4.03991 0.00687334 4.69097e-20)
(4.02983 0.00676271 4.6282e-20)
(4.01968 0.00665183 0)
(4.00944 0.00654191 0)
(3.99913 0.00643522 4.44262e-20)
(3.98875 0.00633275 -4.38166e-20)
(3.9783 0.00623314 0)
(3.96777 0.00613442 0)
(3.95717 0.00603547 -4.20074e-20)
(3.9465 0.00593716 1.24238e-19)
(3.93576 0.00584137 0)
(3.92495 0.00575001 0)
(3.91407 0.00566418 3.96497e-20)
(3.90312 0.00558227 0)
(3.89208 0.00550414 7.69869e-20)
(3.88097 0.00542633 -3.79209e-20)
(3.86977 0.00535938 0)
(3.85851 0.00528577 3.67848e-20)
(3.84708 0.00524992 7.24456e-20)
(3.83571 0.00516806 0)
(3.82385 0.00521171 0)
(3.81264 0.00505711 -3.45561e-20)
(3.79967 0.0053177 0)
(3.78961 0.00489333 6.69256e-20)
(3.77355 0.00572414 0)
(3.76755 0.00456068 0)
(3.74356 0.00666861 0)
(3.74777 0.00397208 0)
(3.70781 0.00828433 -3.07874e-20)
(3.72954 0.00340985 -3.02658e-20)
(3.66785 0.0103066 0)
(3.70613 0.00372622 0)
(3.62982 0.0125533 0)
(3.6677 0.00533171 2.82103e-20)
(3.5952 0.0165576 0)
(3.61092 0.00701786 -5.44272e-20)
(3.55401 0.0261449 5.34436e-20)
(3.53036 0.00857712 5.24881e-20)
(3.50073 0.044017 5.15225e-20)
(3.39597 0.014861 5.06222e-20)
(3.42883 0.079032 4.96903e-20)
(3.15146 0.0374939 0)
(-0.0442983 0.62997 0)
(-0.184999 0.715056 0)
(-0.314472 0.710087 3.73254e-20)
(-0.455931 0.706089 3.69962e-20)
(-0.600025 0.709704 -3.67355e-20)
(-0.745141 0.71039 -3.64335e-20)
(-0.894969 0.713857 -4.25563e-23)
(-1.04532 0.718819 0)
(-1.19744 0.722983 0)
(-1.35199 0.726655 0)
(-1.50843 0.729613 0)
(-1.66681 0.730823 0)
(-1.82678 0.730285 1.02483e-19)
(-1.98733 0.727269 0)
(-2.14795 0.720854 -3.35573e-20)
(-2.30785 0.710708 -3.32316e-20)
(-2.46611 0.695579 0)
(-2.62134 0.675308 0)
(-2.77234 0.648585 0)
(-2.91757 0.615285 0)
(-3.0554 0.57433 -3.16885e-20)
(-3.18351 0.525845 0)
(-3.30007 0.46899 3.11557e-20)
(-3.40303 0.404037 0)
(-3.48983 0.331006 0)
(-3.55854 0.250427 0)
(-3.60678 0.162954 6.02661e-20)
(-3.63245 0.069862 0)
(-3.63381 -0.0275812 -3.01186e-20)
(-3.60859 -0.127683 5.96602e-20)
(-3.55612 -0.228005 0)
(-3.47653 -0.326948 0)
(-3.36998 -0.422154 0)
(-3.23807 -0.511342 -3.0029e-20)
(-3.08242 -0.593097 -3.00755e-20)
(-2.90528 -0.666383 0)
(-2.70893 -0.729156 0)
(-2.49661 -0.782106 6.03164e-20)
(-2.27065 -0.823919 6.04738e-20)
(-2.03428 -0.855248 -6.06154e-20)
(-1.79001 -0.876497 0)
(-1.54072 -0.888581 0)
(-1.28811 -0.891722 0)
(-1.03445 -0.887317 0)
(-0.781721 -0.876694 6.09364e-20)
(-0.53066 -0.860017 6.08138e-20)
(-0.283394 -0.839153 -6.07128e-20)
(-0.0417317 -0.813988 0)
(0.194554 -0.786317 0)
(0.425504 -0.75636 0)
(0.650235 -0.724603 0)
(0.868363 -0.691603 5.96468e-20)
(1.07961 -0.657814 0)
(1.28376 -0.623619 0)
(1.48069 -0.589342 5.86412e-20)
(1.67032 -0.555263 5.82688e-20)
(1.85264 -0.521625 0)
(2.02768 -0.488633 -1.14869e-19)
(2.1955 -0.456469 5.70082e-20)
(2.35617 -0.425286 -5.6558e-20)
(2.50982 -0.395209 0)
(2.65659 -0.366346 0)
(2.79666 -0.338769 0)
(2.93018 -0.312536 0)
(3.05732 -0.287693 -5.41618e-20)
(3.1783 -0.264239 -1.07307e-19)
(3.29331 -0.242202 -5.31621e-20)
(3.40254 -0.221546 5.26579e-20)
(3.50619 -0.20224 0)
(3.60445 -0.184276 -1.03272e-19)
(3.69751 -0.167578 -1.02259e-19)
(3.78562 -0.152098 -1.01247e-19)
(3.86891 -0.137809 1.00236e-19)
(3.9476 -0.12462 0)
(4.02189 -0.112461 1.47343e-19)
(4.09195 -0.101328 0)
(4.15794 -0.0911175 -4.81083e-20)
(4.22004 -0.0817607 -4.76252e-20)
(4.27847 -0.073199 0)
(4.33336 -0.0653537 0)
(4.38491 -0.0581906 -9.23049e-20)
(4.43326 -0.0516258 0)
(4.47857 -0.0456321 -9.03813e-20)
(4.52105 -0.0401704 0)
(4.56079 -0.0351612 8.84856e-20)
(4.59794 -0.0306144 1.75103e-19)
(4.63271 -0.0264628 0)
(4.66511 -0.0226763 0)
(4.69528 -0.0193136 0)
(4.72348 -0.0162874 8.38721e-20)
(4.74977 -0.013522 0)
(4.77422 -0.0110045 8.20771e-20)
(4.79694 -0.00873611 0)
(4.81803 -0.00669201 0)
(4.83761 -0.00483335 -1.58879e-19)
(4.85577 -0.00315665 0)
(4.87257 -0.0016511 -7.77142e-20)
(4.88809 -0.000285595 0)
(4.90245 0.000939842 -7.60176e-20)
(4.9157 0.00203075 0)
(4.92789 0.00302684 0)
(4.9391 0.0039301 0)
(4.94939 0.00473767 -2.18114e-19)
(4.95882 0.00546068 -7.18934e-20)
(4.96745 0.00611101 0)
(4.97532 0.00669296 0)
(4.98248 0.00720894 0)
(4.98898 0.007665 0)
(4.99487 0.00806916 6.79256e-20)
(5.00018 0.00842736 -1.34299e-19)
(5.00494 0.0087429 -6.63806e-20)
(5.00919 0.00901809 1.31233e-19)
(5.01296 0.00925614 1.29717e-19)
(5.01629 0.00946136 6.41063e-20)
(5.0192 0.00963822 0)
(5.02172 0.00978993 1.25235e-19)
(5.02387 0.00991742 0)
(5.02567 0.0100212 -1.22303e-19)
(5.02714 0.0101037 -6.04263e-20)
(5.02832 0.0101683 0)
(5.02921 0.0102179 1.17982e-19)
(5.02983 0.0102536 5.82816e-20)
(5.03019 0.0102754 0)
(5.03032 0.0102833 5.68769e-20)
(5.03022 0.0102793 -1.68547e-19)
(5.02991 0.0102659 0)
(5.02939 0.0102449 0)
(5.02869 0.0102171 0)
(5.02781 0.0101825 0)
(5.02676 0.0101412 -1.05561e-19)
(5.02554 0.010094 -1.04228e-19)
(5.02417 0.0100418 0)
(5.02265 0.00998536 0)
(5.02098 0.00992477 0)
(5.01918 0.00986042 0)
(5.01725 0.00979316 0)
(5.01519 0.00972413 0)
(5.013 0.0096538 -9.51481e-20)
(5.0107 0.00958145 -2.53389e-26)
(5.00827 0.009506 0)
(5.00574 0.00942732 0)
(5.00309 0.00934691 -9.01467e-20)
(5.00034 0.00926743 0)
(4.99748 0.00919002 8.76948e-20)
(4.99451 0.0091133 8.64807e-20)
(4.99143 0.0090354 0)
(4.98825 0.0089555 0)
(4.98496 0.00887482 -8.28849e-20)
(4.98157 0.00879605 -1.63403e-19)
(4.97808 0.00872139 0)
(4.97448 0.00865209 0)
(4.97076 0.00858664 0)
(4.96693 0.00852417 -7.70421e-20)
(4.96299 0.00846441 7.58954e-20)
(4.95891 0.00841175 0)
(4.95476 0.00836769 1.47246e-19)
(4.95036 0.00833379 7.24974e-20)
(4.94606 0.00832769 -1.42758e-19)
(4.94108 0.00830816 0)
(4.93702 0.00837804 0)
(4.93062 0.00836745 -1.36128e-19)
(4.92805 0.00851977 -6.69739e-20)
(4.91792 0.00869213 0)
(4.92014 0.00852865 0)
(4.90124 0.00993045 0)
(4.91422 0.00765319 0)
(4.87962 0.013403 -1.23236e-19)
(4.90845 0.0049337 0)
(4.85622 0.0199427 0)
(4.89494 0.00148766 0)
(4.83831 0.0274899 0)
(4.86459 0.0016103 0)
(4.82609 0.0339846 0)
(4.81839 0.00643779 -1.08901e-19)
(4.8065 0.0453272 0)
(4.75828 0.0132841 0)
(4.77098 0.0674362 -2.06225e-19)
(4.66681 0.033491 1.01209e-19)
(4.71151 0.104875 -9.94903e-20)
(4.52151 0.0886812 9.75819e-20)
(-0.0322113 0.83809 0)
(-0.176848 0.958775 -7.50516e-20)
(-0.327475 0.962096 0)
(-0.466093 1.00253 -3.69968e-20)
(-0.601323 1.00359 0)
(-0.747058 1.02154 0)
(-0.883751 1.02999 3.59604e-20)
(-1.03289 1.03059 0)
(-1.1886 1.0355 0)
(-1.34684 1.04055 0)
(-1.50801 1.04332 0)
(-1.67141 1.04619 0)
(-1.83617 1.04616 -1.36335e-19)
(-2.00345 1.04171 -6.73602e-20)
(-2.17168 1.03382 6.66586e-20)
(-2.34064 1.01948 0)
(-2.50909 0.999476 0)
(-2.67615 0.970553 0)
(-2.84016 0.934269 0)
(-2.99949 0.886723 0)
(-3.15244 0.829759 -6.25566e-20)
(-3.29623 0.760231 -6.19421e-20)
(-3.42904 0.679333 6.1366e-20)
(-3.54752 0.585685 -6.08364e-20)
(-3.64949 0.48003 0)
(-3.73161 0.362669 0)
(-3.79107 0.234802 -6.02628e-20)
(-3.825 0.0981517 0)
(-3.83123 -0.045313 0)
(-3.80663 -0.192755 -5.96559e-20)
(-3.75091 -0.340469 -5.89532e-20)
(-3.66376 -0.485819 -5.89759e-20)
(-3.54509 -0.625828 0)
(-3.39795 -0.755633 0)
(-3.22356 -0.873839 5.93661e-20)
(-3.02661 -0.979837 0)
(-2.80803 -1.06848 0)
(-2.5742 -1.14323 -6.03124e-20)
(-2.326 -1.20073 5.99149e-20)
(-2.06907 -1.24323 -6.01394e-20)
(-1.80588 -1.27113 0)
(-1.53892 -1.28523 0)
(-1.27051 -1.28739 -1.21473e-19)
(-1.00392 -1.27888 0)
(-0.740267 -1.26122 -1.21556e-19)
(-0.480455 -1.23634 -1.8228e-19)
(-0.225994 -1.20525 1.82003e-19)
(0.0209403 -1.1694 -1.21031e-19)
(0.260629 -1.13005 0)
(0.494195 -1.08784 0)
(0.720377 -1.04357 -1.19789e-19)
(0.938972 -0.997894 -5.96474e-20)
(1.14985 -0.951377 0)
(1.35291 -0.904488 0)
(1.54815 -0.857628 -5.86425e-20)
(1.73557 -0.811137 -1.16482e-19)
(1.91525 -0.765312 0)
(2.0873 -0.72041 1.14873e-19)
(2.25183 -0.676655 -1.13967e-19)
(2.40901 -0.634229 1.13067e-19)
(2.55902 -0.593281 0)
(2.70209 -0.553932 0)
(2.83843 -0.516274 0)
(2.96828 -0.480373 0)
(3.09185 -0.446259 0)
(3.20941 -0.413943 1.07317e-19)
(3.3212 -0.383426 0)
(3.42744 -0.354683 0)
(3.52835 -0.327674 0)
(3.62418 -0.302361 2.06543e-19)
(3.71511 -0.278665 1.02273e-19)
(3.80137 -0.256542 1.01261e-19)
(3.88316 -0.235928 -2.00479e-19)
(3.96065 -0.216734 9.92224e-20)
(4.03403 -0.198904 -9.82403e-20)
(4.1035 -0.182358 0)
(4.16922 -0.167023 9.62462e-20)
(4.23133 -0.152809 0)
(4.29001 -0.139662 0)
(4.34543 -0.127513 0)
(4.39773 -0.116275 1.84635e-19)
(4.44706 -0.105914 -9.1347e-20)
(4.49356 -0.0963429 -9.03786e-20)
(4.53738 -0.0875145 -1.7888e-19)
(4.57865 -0.0793949 -2.655e-19)
(4.6175 -0.0718908 -8.75696e-20)
(4.65403 -0.0650073 0)
(4.68833 -0.0587136 -1.7142e-19)
(4.72057 -0.052878 0)
(4.75093 -0.0474858 -2.51671e-19)
(4.77945 -0.0425349 0)
(4.80619 -0.0379877 -2.46289e-19)
(4.83123 -0.0338154 0)
(4.85474 -0.0299869 0)
(4.87676 -0.0264643 -7.94537e-20)