/*--------------------------------*- C++ -*----------------------------------*\
| =========                 |                                                 |
| \\      /  F ield         | OpenFOAM: The Open Source CFD Toolbox           |
|  \\    /   O peration     | Version:  2.1.x                                 |
|   \\  /    A nd           | Web:      www.OpenFOAM.org                      |
|    \\/     M anipulation  |                                                 |
\*---------------------------------------------------------------------------*/
FoamFile
{
    version     2.0;
    format      ascii;
    class       volVectorField;
    location    "0.007";
    object      U_0;
}
// * * * * * * * * * * * * * * * * * * * * * * * * * * * * * * * * * * * * * //

dimensions      [0 1 -1 0 0 0 0];

internalField   nonuniform List<vector> 
12225
(
(7.09055 0.379129 0)
(4.44508 0.180814 0)
(3.09149 0.0260496 0)
(2.46205 -0.0108172 0)
(2.16712 -0.0113954 0)
(2.02586 -0.00783942 0)
(1.93875 -0.00573477 0)
(1.89411 -0.00285714 0)
(1.83773 -0.000646233 0)
(1.81404 -0.00242265 0)
(1.77687 -0.00240313 0)
(1.79558 -0.00589948 0)
(1.77065 -0.00340423 0)
(1.81114 -0.0043868 0)
(1.7481 -0.000780357 0)
(1.81848 -0.000507664 0)
(1.75886 -0.00289198 0)
(1.85093 -0.0467695 0)
(9.72716 1.00167 0)
(9.0022 0.834519 0)
(7.90858 0.424607 0)
(6.9737 0.212551 0)
(6.28744 0.112423 0)
(5.8694 0.061674 0)
(5.5652 0.0340315 0)
(5.38531 0.0272789 0)
(5.19633 0.0247412 0)
(5.12027 0.0179584 0)
(4.99055 0.011022 0)
(5.02144 0.00243733 0)
(4.89809 0.000563131 0)
(4.98938 0.00677073 0)
(4.82247 0.0100897 0)
(4.94606 -0.0121253 0)
(4.86502 -0.0106406 0)
(4.9784 -0.0485929 0)
(10.2634 0.756502 0)
(10.7174 0.867314 0)
(10.5112 0.558814 0)
(10.0289 0.381239 0)
(9.46445 0.281149 0)
(9.06851 0.202019 0)
(8.70787 0.138538 0)
(8.46806 0.109612 0)
(8.20889 0.0855944 0)
(8.07105 0.0556058 0)
(7.87767 0.0325811 0)
(7.85304 0.0130254 0)
(7.71897 0.0142382 0)
(7.73053 0.00871726 0)
(7.61693 0.0285709 0)
(7.62311 -0.00694648 0)
(7.64891 -0.0446924 0)
(7.57629 -0.0936235 0)
(9.88468 0.681338 0)
(10.5957 0.841533 0)
(10.8548 0.58052 0)
(10.964 0.41678 0)
(10.9024 0.339491 0)
(10.8561 0.270236 0)
(10.7506 0.217711 0)
(10.6263 0.196979 0)
(10.4901 0.180157 0)
(10.3676 0.148621 0)
(10.2193 0.112408 0)
(10.115 0.065787 0)
(10.0373 0.0605237 0)
(9.99847 0.0603428 0)
(9.91793 0.0643449 0)
(9.81419 0.00224948 0)
(9.93994 -0.0508516 0)
(9.85604 -0.036967 0)
(9.9756 0.484582 0)
(10.6912 0.710913 0)
(11.1168 0.539645 0)
(11.3324 0.365399 0)
(11.3487 0.296605 0)
(11.2748 0.232611 0)
(11.1834 0.195219 0)
(11.0804 0.186006 0)
(11.0734 0.164366 0)
(11.0714 0.136447 0)
(11.0858 0.115631 0)
(11.0793 0.070042 0)
(11.1209 0.0408129 0)
(11.1519 0.0555151 0)
(11.1016 0.0927005 0)
(11.0343 0.0150537 0)
(11.1342 -0.129513 0)
(11.0495 -0.0473249 0)
(10.343 0.322556 0)
(10.5568 0.562831 0)
(10.797 0.490252 0)
(10.9711 0.339684 0)
(11.119 0.306713 0)
(11.2272 0.284917 0)
(11.2528 0.272896 0)
(11.2373 0.251227 0)
(11.2176 0.201502 0)
(11.1618 0.166178 0)
(11.1624 0.131124 0)
(11.1993 0.0605116 0)
(11.2238 0.0327343 0)
(11.2177 0.096313 0)
(11.2356 0.119894 0)
(11.3156 -0.00546582 0)
(11.2577 -0.0988921 0)
(11.0916 -0.0373484 0)
(9.97857 0.384153 0)
(10.2996 0.544663 0)
(10.6221 0.446568 0)
(10.797 0.272622 0)
(10.8745 0.193459 0)
(10.9291 0.164257 0)
(10.9442 0.163224 0)
(10.9448 0.180798 0)
(10.9321 0.176248 0)
(10.9255 0.140845 0)
(10.9609 0.08393 0)
(11.0081 0.0212197 0)
(10.9952 0.00899638 0)
(11.0215 0.0264648 0)
(11.1224 -0.00451304 0)
(11.1056 -0.00534206 0)
(10.9751 0.00662932 0)
(11.0632 -0.0632149 0)
(10.0468 0.237431 0)
(10.3473 0.425807 0)
(10.5144 0.402856 0)
(10.5668 0.308245 0)
(10.5926 0.244539 0)
(10.6537 0.223798 0)
(10.6948 0.22467 0)
(10.7444 0.23261 0)
(10.7999 0.19705 0)
(10.8505 0.150288 0)
(10.8721 0.0974873 0)
(10.858 0.0404461 0)
(10.8017 0.0185038 0)
(10.7988 0.0316483 0)
(10.7672 0.0641437 0)
(10.6898 0.0834071 0)
(10.742 -0.0454371 0)
(10.8667 -0.184065 0)
(9.87427 0.0934775 0)
(10.1289 0.31873 0)
(10.3569 0.361247 0)
(10.4836 0.290674 0)
(10.5388 0.199659 0)
(10.5882 0.142627 0)
(10.6172 0.129679 0)
(10.6906 0.143998 0)
(10.7683 0.141093 0)
(10.8272 0.11815 0)
(10.8289 0.0965037 0)
(10.7987 0.0654299 0)
(10.7099 0.0367947 0)
(10.6302 0.0447428 0)
(10.597 0.0504053 0)
(10.6523 0.0106778 0)
(10.6766 -0.0960921 0)
(10.5826 -0.163527 0)
(10.2404 0.197975 0)
(10.2349 0.332477 0)
(10.3372 0.322796 0)
(10.4373 0.266671 0)
(10.4898 0.228296 0)
(10.5052 0.202529 0)
(10.4824 0.16992 0)
(10.4855 0.144558 0)
(10.5162 0.114996 0)
(10.5713 0.0983538 0)
(10.6011 0.096954 0)
(10.6441 0.0873571 0)
(10.6595 0.0823021 0)
(10.6854 0.0885878 0)
(10.7146 0.0502831 0)
(10.7541 0.0308418 0)
(10.7789 -0.012509 0)
(10.7723 -0.241022 0)
(9.80447 0.0716216 0)
(10.1475 0.230802 0)
(10.3203 0.272472 0)
(10.3627 0.252649 0)
(10.4003 0.215041 0)
(10.4974 0.174114 0)
(10.614 0.134399 0)
(10.7114 0.116983 0)
(10.768 0.0954738 0)
(10.7963 0.0729626 0)
(10.7807 0.0554221 0)
(10.7725 0.0381799 0)
(10.7563 0.0139793 0)
(10.7569 0.00614918 0)
(10.7854 0.00691007 0)
(10.8279 -0.0294927 0)
(10.8631 -0.135925 0)
(10.8875 -0.229789 0)
(9.95448 -0.000997937 0)
(9.97477 0.128847 0)
(10.0602 0.218217 0)
(10.1939 0.219358 0)
(10.3156 0.171836 0)
(10.4204 0.103025 0)
(10.4703 0.0457664 0)
(10.4746 0.0313926 0)
(10.4544 0.046408 0)
(10.4392 0.0731241 0)
(10.4358 0.0918828 0)
(10.4641 0.0954713 0)
(10.519 0.0780392 0)
(10.5881 0.053071 0)
(10.6646 0.0121549 0)
(10.7484 -0.0424238 0)
(10.7569 -0.101241 0)
(10.6984 -0.170422 0)
(10.1735 0.222436 0)
(10.1382 0.182722 0)
(10.1821 0.128834 0)
(10.2733 0.109691 0)
(10.3839 0.11117 0)
(10.4853 0.120865 0)
(10.5396 0.136035 0)
(10.5467 0.15052 0)
(10.533 0.131952 0)
(10.5381 0.0740931 0)
(10.5474 0.00259426 0)
(10.5577 -0.0632139 0)
(10.5825 -0.1172 0)
(10.6082 -0.141657 0)
(10.6337 -0.148535 0)
(10.6449 -0.12653 0)
(10.6123 -0.0702929 0)
(10.5427 -0.195896 0)
(10.153 0.149595 0)
(10.2253 0.191649 0)
(10.2229 0.121278 0)
(10.1856 0.0816814 0)
(10.1795 0.0348974 0)
(10.2412 -0.00545942 0)
(10.353 -0.00891823 0)
(10.4625 0.0177067 0)
(10.5384 0.0508178 0)
(10.5831 0.0642243 0)
(10.5878 0.0675343 0)
(10.5448 0.0613882 0)
(10.4901 0.0470972 0)
(10.4371 0.0124884 0)
(10.3963 -0.023242 0)
(10.3716 0.0114157 0)
(10.3588 0.0181193 0)
(10.3594 -0.317092 0)
(9.91547 -0.00475186 0)
(9.97436 0.0623288 0)
(10.1114 0.103989 0)
(10.2599 0.106647 0)
(10.3092 0.0630459 0)
(10.3125 0.01244 0)
(10.3053 -0.00913027 0)
(10.2899 -0.00251196 0)
(10.2787 0.0171182 0)
(10.3076 0.0235122 0)
(10.3638 0.0180662 0)
(10.4222 0.00460782 0)
(10.4702 -0.0261378 0)
(10.5122 -0.0721587 0)
(10.5255 -0.105486 0)
(10.5312 -0.0987103 0)
(10.6002 -0.0945026 0)
(10.6067 -0.311251 0)
(10.0568 0.0416577 0)
(10.0181 -0.0102904 0)
(10.0447 -0.0891317 0)
(10.1003 -0.0909246 0)
(10.0912 -0.0352424 0)
(10.0694 0.0265651 0)
(10.0654 0.0580665 0)
(10.0832 0.0495609 0)
(10.1251 0.0198097 0)
(10.2016 -0.017861 0)
(10.2924 -0.0507827 0)
(10.3665 -0.0728771 0)
(10.4116 -0.084432 0)
(10.4323 -0.0731469 0)
(10.4221 -0.0657843 0)
(10.4201 -0.117208 0)
(10.4546 -0.0760403 0)
(10.4518 0.190407 0)
(9.98313 0.243827 0)
(9.93941 0.103374 0)
(9.97362 -0.0108835 0)
(9.95788 0.0116485 0)
(9.89613 0.066487 0)
(9.87658 0.0598348 0)
(9.90586 -0.0128876 0)
(9.95277 -0.105958 0)
(10.0318 -0.172542 0)
(10.1396 -0.199072 0)
(10.257 -0.194767 0)
(10.3563 -0.177747 0)
(10.4213 -0.153417 0)
(10.4647 -0.131339 0)
(10.4913 -0.145509 0)
(10.486 -0.210353 0)
(10.4178 -0.208308 0)
(10.437 -0.00922675 0)
(10.0177 -0.113047 0)
(10.0597 -0.0237552 0)
(10.0435 -0.0134071 0)
(10.0757 -0.00546103 0)
(10.1649 0.0387136 0)
(10.2561 0.0480999 0)
(10.3192 -0.0223532 0)
(10.3273 -0.145159 0)
(10.2988 -0.26679 0)
(10.2542 -0.3445 0)
(10.2185 -0.371446 0)
(10.2051 -0.340068 0)
(10.2127 -0.275758 0)
(10.2417 -0.208269 0)
(10.2676 -0.122055 0)
(10.2783 0.0135543 0)
(10.2781 0.00129621 0)
(10.2585 -0.360626 0)
(10.0431 -0.000541629 0)
(10.0518 -0.0236081 0)
(10.0295 -0.0395773 0)
(10.045 -0.115419 0)
(10.0963 -0.172102 0)
(10.1651 -0.156401 0)
(10.2296 -0.0923716 0)
(10.2499 -0.0383652 0)
(10.2183 -0.0346488 0)
(10.1496 -0.0718726 0)
(10.0755 -0.134455 0)
(10.0251 -0.196338 0)
(10.0131 -0.236506 0)
(10.0349 -0.246351 0)
(10.0815 -0.240922 0)
(10.1371 -0.270331 0)
(10.2095 -0.2355 0)
(10.2503 -0.00357632 0)
(10.0351 -0.13136 0)
(9.93844 -0.0307403 0)
(10.0722 -0.00775047 0)
(10.1844 -0.100907 0)
(10.2032 -0.173302 0)
(10.1912 -0.171356 0)
(10.2076 -0.124597 0)
(10.2623 -0.0869263 0)
(10.3366 -0.0889454 0)
(10.3977 -0.123719 0)
(10.4217 -0.177096 0)
(10.3991 -0.232921 0)
(10.3498 -0.275146 0)
(10.2955 -0.304414 0)
(10.2531 -0.307583 0)
(10.2224 -0.272791 0)
(10.1894 -0.250826 0)
(10.1905 -0.310821 0)
(10.1537 -0.0210217 0)
(10.0982 -0.0756715 0)
(10.1162 -0.18734 0)
(10.191 -0.219866 0)
(10.2905 -0.192658 0)
(10.3595 -0.155979 0)
(10.3959 -0.141763 0)
(10.4063 -0.150019 0)
(10.4194 -0.161292 0)
(10.4402 -0.160148 0)
(10.4568 -0.145221 0)
(10.4609 -0.129264 0)
(10.4521 -0.123529 0)
(10.438 -0.134845 0)
(10.4241 -0.162286 0)
(10.4116 -0.203651 0)
(10.4031 -0.239532 0)
(10.3828 -0.240258 0)
(9.85289 0.00853644 0)
(9.96406 -0.089703 0)
(10.0316 -0.199414 0)
(10.0284 -0.274355 0)
(10.0508 -0.287616 0)
(10.1179 -0.239781 0)
(10.2037 -0.170335 0)
(10.2791 -0.126612 0)
(10.3628 -0.12653 0)
(10.4536 -0.158255 0)
(10.5388 -0.201407 0)
(10.6022 -0.237012 0)
(10.6437 -0.255695 0)
(10.6647 -0.259081 0)
(10.6752 -0.248182 0)
(10.6685 -0.231239 0)
(10.6453 -0.2124 0)
(10.607 -0.205709 0)
(9.99399 -0.138389 0)
(10.0655 -0.135453 0)
(10.1679 -0.214362 0)
(10.2301 -0.284292 0)
(10.2492 -0.285062 0)
(10.277 -0.260987 0)
(10.3388 -0.251215 0)
(10.4074 -0.268998 0)
(10.4762 -0.291592 0)
(10.5342 -0.304174 0)
(10.5701 -0.298057 0)
(10.5793 -0.272955 0)
(10.5743 -0.239979 0)
(10.5638 -0.208921 0)
(10.5623 -0.187486 0)
(10.5678 -0.178948 0)
(10.5815 -0.18173 0)
(10.5912 -0.187867 0)
(9.85428 -0.130906 0)
(10.0906 -0.253547 0)
(10.2839 -0.321911 0)
(10.3884 -0.307906 0)
(10.4277 -0.272428 0)
(10.4808 -0.254855 0)
(10.5694 -0.260207 0)
(10.6424 -0.274168 0)
(10.6785 -0.281181 0)
(10.6834 -0.280314 0)
(10.6664 -0.276893 0)
(10.6474 -0.270852 0)
(10.6419 -0.260276 0)
(10.6524 -0.249663 0)
(10.6843 -0.239168 0)
(10.7194 -0.230446 0)
(10.7542 -0.22498 0)
(10.7707 -0.220948 0)
(9.93117 -0.331178 0)
(10.139 -0.413664 0)
(10.4061 -0.405025 0)
(10.6306 -0.371883 0)
(10.7393 -0.327366 0)
(10.7712 -0.308816 0)
(10.7777 -0.321445 0)
(10.7751 -0.32863 0)
(10.7726 -0.314507 0)
(10.7778 -0.290417 0)
(10.7961 -0.270783 0)
(10.8156 -0.263332 0)
(10.8356 -0.263743 0)
(10.8497 -0.268637 0)
(10.8596 -0.271833 0)
(10.8668 -0.268516 0)
(10.8713 -0.259065 0)
(10.8721 -0.241819 0)
(10.1317 -0.204364 0)
(10.3001 -0.551894 0)
(10.5286 -0.54568 0)
(10.7452 -0.410067 0)
(10.9007 -0.300683 0)
(11.0089 -0.272308 0)
(11.0809 -0.292091 0)
(11.1017 -0.316827 0)
(11.0756 -0.326099 0)
(11.0276 -0.322977 0)
(10.9791 -0.313428 0)
(10.9388 -0.298914 0)
(10.9027 -0.281879 0)
(10.8684 -0.264839 0)
(10.828 -0.249086 0)
(10.7878 -0.23694 0)
(10.744 -0.228637 0)
(10.7045 -0.223814 0)
(9.97478 -0.247582 0)
(10.2398 -0.601427 0)
(10.5908 -0.628767 0)
(10.8895 -0.507977 0)
(11.0886 -0.425831 0)
(11.1808 -0.397113 0)
(11.1902 -0.377939 0)
(11.1241 -0.341651 0)
(11.011 -0.295659 0)
(10.88 -0.258571 0)
(10.7608 -0.239456 0)
(10.6576 -0.233346 0)
(10.5757 -0.233175 0)
(10.5021 -0.233391 0)
(10.4387 -0.22959 0)
(10.3751 -0.224008 0)
(10.3153 -0.215785 0)
(10.2512 -0.207623 0)
(9.76054 -0.361379 0)
(10.3771 -0.818752 0)
(10.6559 -0.749366 0)
(10.702 -0.539093 0)
(10.5806 -0.410756 0)
(10.3597 -0.346832 0)
(10.098 -0.299855 0)
(9.83396 -0.250518 0)
(9.58993 -0.20854 0)
(9.37572 -0.182669 0)
(9.18795 -0.175116 0)
(9.01353 -0.173042 0)
(8.8503 -0.172852 0)
(8.68654 -0.166978 0)
(8.538 -0.160514 0)
(8.38892 -0.150921 0)
(8.25977 -0.143892 0)
(8.12456 -0.136887 0)
(10.0198 -0.580991 0)
(9.98808 -0.945596 0)
(9.33285 -0.775863 0)
(8.59575 -0.531967 0)
(7.92623 -0.349976 0)
(7.36244 -0.229862 0)
(6.90011 -0.153422 0)
(6.54195 -0.103743 0)
(6.26206 -0.0734261 0)
(6.04368 -0.0575716 0)
(5.85314 -0.0529961 0)
(5.68593 -0.051547 0)
(5.52548 -0.0527893 0)
(5.37961 -0.0510855 0)
(5.24543 -0.0530264 0)
(5.11839 -0.0502703 0)
(5.0117 -0.0557278 0)
(4.88919 -0.0520135 0)
(8.40583 -0.488557 0)
(6.0703 -0.374231 0)
(4.34407 -0.129288 0)
(3.31023 -0.0118585 0)
(2.74104 0.0285793 0)
(2.42551 0.0353977 0)
(2.2379 0.0284391 0)
(2.11981 0.020418 0)
(2.03825 0.0149344 0)
(1.97964 0.011027 0)
(1.92581 0.00670367 0)
(1.87455 0.00278962 0)
(1.81648 -0.00021724 0)
(1.76312 -0.00191628 0)
(1.70301 -0.00347131 0)
(1.65386 -0.00257027 0)
(1.59408 -0.0096105 0)
(1.53278 0.00462029 0)
(-0.0534299 0.122479 0)
(-0.178874 0.130949 0)
(-0.305195 0.129535 0)
(-0.433198 0.128273 0)
(-0.561677 0.127029 0)
(-0.691399 0.125885 0)
(-0.821772 0.12523 -5.61748e-20)
(-0.95369 0.125137 5.57636e-20)
(-1.08694 0.125679 0)
(-1.22186 0.126733 5.49503e-20)
(-1.35851 0.128187 0)
(-1.49727 0.129904 0)
(-1.63773 0.131662 0)
(-1.77963 0.133202 -5.33558e-20)
(-1.92255 0.134349 0)
(-2.06573 0.134893 0)
(-2.20829 0.13459 5.21751e-20)
(-2.34923 0.133236 0)
(-2.48722 0.130582 0)
(-2.62055 0.126479 0)
(-2.74769 0.120909 -5.05833e-20)
(-2.86682 0.113679 0)
(-2.97609 0.104654 -4.97602e-20)
(-3.07345 0.0940476 0)
(-3.15701 0.0816895 0)
(-3.2247 0.0677698 -4.84636e-20)
(-3.27479 0.0523911 0)
(-3.30547 0.0358297 4.75455e-20)
(-3.31528 0.0182782 0)
(-3.30277 0.000302099 -4.65788e-20)
(-3.26697 -0.0178719 0)
(-3.20791 -0.0359284 0)
(-3.12585 -0.053349 0)
(-3.02159 -0.0698187 0)
(-2.89633 -0.0849184 0)
(-2.75165 -0.0984093 4.34357e-20)
(-2.58951 -0.109982 0)
(-2.41193 -0.11953 -8.4707e-20)
(-2.22117 -0.127029 0)
(-2.02004 -0.132507 8.25655e-20)
(-1.81085 -0.135708 0)
(-1.59555 -0.136988 0)
(-1.37666 -0.136554 -7.94581e-20)
(-1.15648 -0.134328 0)
(-0.936732 -0.130575 -7.74835e-20)
(-0.719114 -0.12588 7.65291e-20)
(-0.505602 -0.119784 0)
(-0.297807 -0.11317 7.46877e-20)
(-0.0967752 -0.106055 7.38006e-20)
(0.0967327 -0.0983904 0)
(0.282273 -0.0902848 0)
(0.459349 -0.0820159 0)
(0.627235 -0.073705 0)
(0.785554 -0.0654577 0)
(0.934071 -0.057372 -6.89015e-20)
(1.07267 -0.049536 0)
(1.20134 -0.0420197 6.74064e-20)
(1.32015 -0.0348763 0)
(1.42924 -0.0281504 0)
(1.52885 -0.0218858 -6.52666e-20)
(1.61927 -0.0161174 0)
(1.70085 -0.01086 6.38981e-20)
(1.77397 -0.00611693 0)
(1.83906 -0.00188333 0)
(1.89658 0.00183844 0)
(1.94702 0.00506514 -6.12735e-20)
(1.99084 0.00782513 0)
(2.02856 0.0101433 0)
(2.06065 0.0120588 -5.93846e-20)
(2.08759 0.0135849 0)
(2.10986 0.0147689 -5.81565e-20)
(2.12788 0.0156657 0)
(2.14211 0.0162628 0)
(2.15293 0.016632 0)
(2.16069 0.016857 5.57632e-20)
(2.16578 0.0168611 0)
(2.16854 0.0166125 0)
(2.16928 0.0162344 5.40161e-20)
(2.16825 0.015811 5.3442e-20)
(2.1657 0.0153518 0)
(2.16182 0.014856 5.23052e-20)
(2.15677 0.0143384 0)
(2.15074 0.0138023 1.02366e-19)
(2.14387 0.0132566 0)
(2.13627 0.0127198 1.00151e-19)
(2.12807 0.0121796 0)
(2.11936 0.0116333 -9.79635e-20)
(2.11021 0.011133 0)
(2.10068 0.0106977 0)
(2.09083 0.0102743 0)
(2.08074 0.00985578 9.36695e-20)
(2.07048 0.00944618 0)
(2.06007 0.00904828 -9.15622e-20)
(2.04957 0.00866966 0)
(2.039 0.00831087 8.9481e-20)
(2.02839 0.00796321 8.84501e-20)
(2.01776 0.00762722 8.74256e-20)
(2.00714 0.00730767 0)
(1.99653 0.00700196 0)
(1.98596 0.00670707 0)
(1.97542 0.00642581 0)
(1.96493 0.00615934 0)
(1.95451 0.00590734 0)
(1.94416 0.00566995 0)
(1.93387 0.00544581 0)
(1.92367 0.00523195 -7.84906e-20)
(1.91354 0.00502694 -7.75291e-20)
(1.9035 0.00483197 0)
(1.89354 0.00464823 0)
(1.88367 0.00447445 0)
(1.87387 0.00430812 -7.37442e-20)
(1.86416 0.00414741 0)
(1.85454 0.0039924 0)
(1.845 0.00384488 0)
(1.83554 0.0037057 0)
(1.82617 0.00357352 6.91484e-20)
(1.81687 0.00344602 0)
(1.80766 0.00332203 0)
(1.79852 0.00320213 -6.64615e-20)
(1.78947 0.00308757 6.55774e-20)
(1.78049 0.00297872 0)
(1.77159 0.00287471 6.38263e-20)
(1.76276 0.00277424 0)
(1.75401 0.00267663 -6.20976e-20)
(1.74533 0.00258198 0)
(1.73672 0.00249056 0)
(1.72818 0.00240237 0)
(1.71972 0.00231747 0)
(1.71132 0.002236 0)
(1.70299 0.00215783 1.14086e-19)
(1.69472 0.00208245 1.12439e-19)
(1.68651 0.00200907 0)
(1.67837 0.00193713 0)
(1.67029 0.00186674 0)
(1.66227 0.00179867 -1.05953e-19)
(1.65431 0.00173365 0)
(1.64641 0.00167162 0)
(1.63857 0.00161169 0)
(1.63078 0.00155272 -9.96286e-20)
(1.62305 0.00149423 9.80721e-20)
(1.61537 0.00143682 0)
(1.60775 0.00138177 0)
(1.60019 0.00132984 9.34598e-20)
(1.59267 0.0012805 9.19412e-20)
(1.58521 0.0012325 0)
(1.57779 0.001185 0)
(1.57042 0.00113805 -8.74403e-20)
(1.5631 0.00109251 8.59581e-20)
(1.55582 0.00104939 0)
(1.54859 0.00100913 0)
(1.5414 0.000971384 8.15642e-20)
(1.53425 0.000935106 0)
(1.52712 0.000900058 0)
(1.52003 0.000865828 7.72474e-20)
(1.51296 0.000835152 0)
(1.50592 0.000804275 7.44109e-20)
(1.49887 0.000783066 0)
(1.49186 0.000752842 0)
(1.48474 0.000752183 0)
(1.47779 0.000704659 -6.88341e-20)
(1.47041 0.000763681 0)
(1.46368 0.000631396 0)
(1.45549 0.000879833 0)
(1.44958 0.000460241 0)
(1.4393 0.00120882 0)
(1.43562 0.000109733 0)
(1.42087 0.00180811 -5.93651e-20)
(1.42151 -0.000314253 -5.80375e-20)
(1.39952 0.00247909 0)
(1.40549 -0.000316652 0)
(1.37514 0.00272007 0)
(1.3844 0.000626719 5.28018e-20)
(1.34613 0.0026099 0)
(1.35482 0.00222539 -1.00434e-19)
(1.30748 0.00327719 9.78713e-20)
(1.3088 0.00456023 9.53042e-20)
(1.25394 0.00567936 -9.27585e-20)
(1.22119 0.00731077 9.0215e-20)
(1.18846 0.0180508 -8.76799e-20)
(0.991971 -0.00712897 0)
(-0.0498358 0.372714 0)
(-0.18893 0.412712 0)
(-0.323661 0.411336 1.1577e-19)
(-0.462143 0.414335 0)
(-0.601573 0.415064 -1.14093e-19)
(-0.744199 0.416629 -1.13265e-19)
(-0.888353 0.417839 -5.62519e-20)
(-1.03523 0.419197 -5.57831e-20)
(-1.18416 0.420878 0)
(-1.33503 0.422673 -5.49765e-20)
(-1.48728 0.424251 0)
(-1.64096 0.425388 0)
(-1.79529 0.425556 1.07652e-19)
(-1.94981 0.424246 5.33955e-20)
(-2.10376 0.421119 -1.06096e-19)
(-2.25635 0.415586 -1.05321e-19)
(-2.40658 0.407225 -5.2224e-20)
(-2.5533 0.395472 0)
(-2.69508 0.380043 0)
(-2.83035 0.360439 0)
(-2.95795 0.336425 -5.07656e-20)
(-3.0756 0.307687 0)
(-3.18139 0.274193 1.49598e-19)
(-3.27385 0.235896 0)
(-3.35071 0.192905 0)
(-3.40996 0.145642 4.85243e-20)
(-3.45004 0.0942953 0)
(-3.46902 0.0397886 -4.76032e-20)
(-3.46532 -0.017337 -9.4393e-20)
(-3.43768 -0.0758792 4.66308e-20)
(-3.38559 -0.134652 0)
(-3.3089 -0.192595 0)
(-3.20777 -0.248339 0)
(-3.0833 -0.300871 -8.9214e-20)
(-2.93682 -0.349074 -8.81255e-20)
(-2.77006 -0.392385 -4.34691e-20)
(-2.5851 -0.429815 0)
(-2.38422 -0.461293 8.47643e-20)
(-2.16975 -0.48651 0)
(-1.94426 -0.505688 -8.26158e-20)
(-1.71013 -0.518615 0)
(-1.46967 -0.525823 0)
(-1.2248 -0.528171 7.95028e-20)
(-0.9776 -0.525532 0)
(-0.730471 -0.518934 2.3263e-19)
(-0.483985 -0.508775 -7.65736e-20)
(-0.240269 -0.495471 0)
(-0.00148996 -0.479823 -7.47345e-20)
(0.232744 -0.462476 -7.38491e-20)
(0.461849 -0.443479 0)
(0.684887 -0.423112 0)
(0.901355 -0.401861 0)
(1.1108 -0.380022 0)
(1.31286 -0.357844 0)
(1.50728 -0.335549 6.89639e-20)
(1.69385 -0.313333 1.36433e-19)
(1.87247 -0.291371 -6.74737e-20)
(2.04307 -0.269808 0)
(2.20562 -0.248777 1.32088e-19)
(2.36015 -0.228393 -6.53497e-20)
(2.50672 -0.208766 0)
(2.64545 -0.189978 -6.39749e-20)
(2.77648 -0.172084 0)
(2.89996 -0.155152 0)
(3.0161 -0.139197 -1.24004e-19)
(3.12509 -0.124261 6.13544e-20)
(3.2272 -0.110361 -1.21446e-19)
(3.32265 -0.0974478 1.20188e-19)
(3.41169 -0.0855521 5.94666e-20)
(3.49462 -0.0746362 0)
(3.57167 -0.0646451 5.82384e-20)
(3.64314 -0.055579 0)
(3.70933 -0.0473747 0)
(3.77044 -0.0399542 0)
(3.82681 -0.0333111 5.58499e-20)
(3.87871 -0.0273938 0)
(3.92634 -0.0221242 1.09352e-19)
(3.96997 -0.0174626 -1.62287e-19)
(4.00986 -0.0133295 -5.35189e-20)
(4.04621 -0.00968916 0)
(4.07925 -0.00649737 -5.23801e-20)
(4.1092 -0.00369104 0)
(4.13629 -0.00126133 -1.02512e-19)
(4.16069 0.000860466 0)
(4.18261 0.00271328 -1.00293e-19)
(4.20222 0.00428411 1.98392e-19)
(4.21966 0.00566063 9.81009e-20)
(4.23514 0.00685971 0)
(4.24879 0.00781544 0)
(4.26068 0.00859508 0)
(4.27096 0.00925425 -9.3799e-20)
(4.27977 0.00980621 0)
(4.2872 0.0102519 9.16879e-20)
(4.29339 0.0105944 0)
(4.29841 0.0108615 -2.68811e-19)
(4.30234 0.0110844 -8.85703e-20)
(4.30527 0.0112506 -8.75441e-20)
(4.30729 0.0113547 0)
(4.30844 0.0114258 0)
(4.3088 0.0114744 0)
(4.30842 0.011493 0)
(4.30736 0.0114764 0)
(4.30566 0.0114299 -1.63043e-19)
(4.30338 0.0113623 -1.61079e-19)
(4.30055 0.0112802 0)
(4.29721 0.0111855 7.85948e-20)
(4.2934 0.0110779 7.76318e-20)
(4.28915 0.0109602 0)
(4.2845 0.0108372 1.51449e-19)
(4.27946 0.0107112 0)
(4.27408 0.0105813 -7.38413e-20)
(4.26836 0.010446 0)
(4.26233 0.0103058 0)
(4.25602 0.0101634 1.42124e-19)
(4.24945 0.0100217 0)
(4.24262 0.00988112 -6.9239e-20)
(4.23555 0.00974006 0)
(4.22826 0.00959677 0)
(4.22076 0.00945201 -6.65481e-20)
(4.21307 0.00930805 -6.5663e-20)
(4.2052 0.00916653 0)
(4.19716 0.00902736 6.39092e-20)
(4.18895 0.00888903 0)
(4.18059 0.00875038 -6.21782e-20)
(4.17208 0.00861187 -1.22643e-19)
(4.16343 0.00847492 0)
(4.15466 0.00834053 0)
(4.14575 0.00820874 0)
(4.13673 0.00807908 0)
(4.1276 0.00795116 -1.14235e-19)
(4.11835 0.00782502 -3.37756e-19)
(4.109 0.00770082 0)
(4.09954 0.00757828 0)
(4.08999 0.00745688 0)
(4.08035 0.00733667 1.06092e-19)
(4.07062 0.00721843 0)
(4.06079 0.00710304 0)
(4.05089 0.00699053 -2.02654e-19)
(4.04089 0.00687971 -9.97585e-20)
(4.03082 0.00676911 -9.82009e-20)
(4.02067 0.00665824 0)
(4.01044 0.00654833 0)
(4.00014 0.00644167 -9.3583e-20)
(3.98976 0.00633923 9.20616e-20)
(3.97931 0.00623964 0)
(3.96879 0.00614092 0)
(3.95819 0.00604196 8.75562e-20)
(3.94753 0.00594363 -2.58216e-19)
(3.93679 0.00584784 0)
(3.92599 0.00575647 0)
(3.91511 0.00567061 -8.16729e-20)
(3.90416 0.00558869 0)
(3.89313 0.00551049 -1.57565e-19)
(3.88203 0.0054327 7.735e-20)
(3.87082 0.00536558 0)
(3.85957 0.00529212 -7.45109e-20)
(3.84814 0.0052558 -1.46206e-19)
(3.83678 0.00517461 0)
(3.82492 0.0052168 0)
(3.8137 0.00506444 6.89273e-20)
(3.80076 0.00532093 0)
(3.79067 0.00490275 -1.32363e-19)
(3.77466 0.00572375 0)
(3.76859 0.00457378 0)
(3.74471 0.00666361 0)
(3.74878 0.00398809 0)
(3.709 0.00827841 5.94462e-20)
(3.73053 0.00342133 5.81172e-20)
(3.66902 0.0103086 0)
(3.7072 0.00372458 0)
(3.63092 0.0125651 0)
(3.66885 0.0053237 -5.28745e-20)
(3.59627 0.0165637 0)
(3.61209 0.00702023 1.00572e-19)
(3.55512 0.0261414 -9.80035e-20)
(3.53155 0.00857211 -9.54328e-20)
(3.50184 0.0440346 -9.28891e-20)
(3.39721 0.0148375 -9.03318e-20)
(3.42996 0.0790593 -8.78094e-20)
(3.15268 0.0374945 0)
(-0.0443559 0.63028 0)
(-0.185105 0.715111 0)
(-0.314693 0.710192 -1.15772e-19)
(-0.456129 0.7063 -1.15039e-19)
(-0.600183 0.709854 1.14102e-19)
(-0.745262 0.710539 1.13277e-19)
(-0.894995 0.713912 -1.07844e-22)
(-1.0453 0.718739 0)
(-1.19736 0.722779 0)
(-1.35181 0.7263 0)
(-1.50813 0.729089 0)
(-1.66635 0.73012 0)
(-1.82612 0.729376 -3.23321e-19)
(-1.98644 0.726139 0)
(-2.14678 0.719491 1.06132e-19)
(-2.30635 0.709099 1.05358e-19)
(-2.46423 0.693717 0)
(-2.61902 0.673188 0)
(-2.76951 0.646215 0)
(-2.91419 0.612666 0)
(-3.05139 0.571484 1.0144e-19)
(-3.17883 0.522791 0)
(-3.29467 0.465767 -9.98055e-20)
(-3.39686 0.400679 0)
(-3.48286 0.327562 0)
(-3.55075 0.246948 0)
(-3.59817 0.159497 -1.93121e-19)
(-3.62302 0.0664827 0)
(-3.62357 -0.0308264 9.44044e-20)
(-3.59757 -0.130735 -1.87324e-19)
(-3.54438 -0.230811 0)
(-3.46414 -0.329453 0)
(-3.35703 -0.424336 0)
(-3.22465 -0.513182 8.92213e-20)
(-3.06862 -0.594559 8.81323e-20)
(-2.8912 -0.667473 0)
(-2.69467 -0.729886 0)
(-2.48226 -0.782469 -1.69939e-19)
(-2.2563 -0.823954 -1.6773e-19)
(-2.02002 -0.854968 1.65545e-19)
(-1.7759 -0.875932 0)
(-1.52683 -0.887765 0)
(-1.2745 -0.890689 0)
(-1.02117 -0.886095 0)
(-0.768811 -0.875321 -1.55118e-19)
(-0.518158 -0.858527 -1.53283e-19)
(-0.271333 -0.837574 1.51406e-19)
(-0.03016 -0.812347 0)
(0.205628 -0.784621 0)
(0.436116 -0.754583 0)
(0.660393 -0.722809 0)
(0.878059 -0.689822 -1.42724e-19)
(1.08883 -0.656063 0)
(1.29252 -0.621908 0)
(1.48898 -0.587682 -1.38004e-19)
(1.67816 -0.553662 -1.36471e-19)
(1.86003 -0.520089 0)
(2.03465 -0.487169 2.67155e-19)
(2.20205 -0.455081 -1.32132e-19)
(2.36232 -0.423977 1.30737e-19)
(2.51558 -0.39398 0)
(2.66199 -0.365199 0)
(2.8017 -0.337702 0)
(2.93489 -0.311549 0)
(3.06171 -0.286783 1.24061e-19)
(3.18238 -0.263403 2.45593e-19)
(3.2971 -0.241437 1.21506e-19)
(3.40606 -0.220847 -1.2025e-19)
(3.50944 -0.201605 0)
(3.60746 -0.1837 2.35577e-19)
(3.70029 -0.167057 2.33131e-19)
(3.78818 -0.151628 2.30707e-19)
(3.87126 -0.137387 -2.28302e-19)
(3.94975 -0.124241 0)
(4.02386 -0.112122 -3.35309e-19)
(4.09374 -0.101026 0)
(4.15957 -0.0908479 1.09442e-19)
(4.22152 -0.0815209 1.08263e-19)
(4.2798 -0.0729857 0)
(4.33456 -0.0651645 0)
(4.38598 -0.0580231 2.09685e-19)
(4.43422 -0.0514776 0)
(4.47942 -0.0455018 2.05186e-19)
(4.5218 -0.0400558 0)
(4.56144 -0.0350608 -2.00743e-19)
(4.5985 -0.0305271 -3.97074e-19)
(4.6332 -0.0263864 0)
(4.66552 -0.022611 0)
(4.69562 -0.0192579 0)
(4.72376 -0.0162394 -1.89877e-19)
(4.74999 -0.0134806 0)
(4.77438 -0.0109693 -1.85624e-19)
(4.79705 -0.00870651 0)
(4.8181 -0.00666703 0)
(4.83764 -0.00481244 3.58681e-19)
(4.85576 -0.00313969 0)
(4.87252 -0.00163719 1.75221e-19)
(4.88802 -0.000274271 0)
(4.90235 0.000948594 1.71151e-19)
(4.91557 0.0020375 0)
(4.92774 0.00303231 0)
(4.93893 0.00393404 0)
(4.9492 0.0047402 4.89487e-19)
(4.95861 0.00546214 1.61196e-19)
(4.96723 0.00611158 0)
(4.97509 0.00669275 0)
(4.98224 0.00720807 0)
(4.98873 0.00766361 0)
(4.99461 0.00806737 -1.51558e-19)
(4.99991 0.00842523 2.99337e-19)
(5.00467 0.0087405 1.47788e-19)
(5.00891 0.00901547 -2.91847e-19)
(5.01268 0.00925336 -2.88138e-19)
(5.01601 0.00945848 -1.42226e-19)
(5.01892 0.00963528 0)
(5.02143 0.00978698 -2.77155e-19)
(5.02358 0.00991448 0)
(5.02538 0.0100183 2.69951e-19)
(5.02686 0.0101008 1.33191e-19)
(5.02804 0.0101655 0)
(5.02893 0.0102152 -2.59319e-19)
(5.02955 0.0102509 -1.2791e-19)
(5.02992 0.0102728 0)
(5.03005 0.0102808 -1.24446e-19)
(5.02995 0.0102769 3.6819e-19)
(5.02965 0.0102637 0)
(5.02914 0.0102428 0)
(5.02845 0.0102151 0)
(5.02757 0.0101806 0)
(5.02653 0.0101394 2.28633e-19)
(5.02531 0.0100924 2.25331e-19)
(5.02395 0.0100403 0)
(5.02243 0.00998401 0)
(5.02077 0.00992352 0)
(5.01898 0.00985926 0)
(5.01706 0.00979211 0)
(5.015 0.00972321 0)
(5.01283 0.00965301 2.02799e-19)
(5.01053 0.00958076 -1.29048e-25)
(5.00812 0.0095054 0)
(5.00559 0.00942679 0)
(5.00295 0.00934646 1.90361e-19)
(5.00021 0.00926706 0)
(4.99736 0.00918976 -1.84256e-19)
(4.9944 0.00911312 -1.81231e-19)
(4.99133 0.00903531 0)
(4.98816 0.00895547 0)
(4.98488 0.00887486 1.72267e-19)
(4.9815 0.00879616 3.38629e-19)
(4.97801 0.00872156 0)
(4.97442 0.00865232 0)
(4.97072 0.00858691 0)
(4.9669 0.00852447 1.57679e-19)
(4.96297 0.00846476 -1.54812e-19)
(4.95891 0.00841211 0)
(4.95476 0.00836808 -2.98257e-19)
(4.95037 0.00833423 -1.46311e-19)
(4.94609 0.00832799 2.87019e-19)
(4.94113 0.00830866 0)
(4.93705 0.00837824 0)
(4.9307 0.00836744 2.70398e-19)
(4.92809 0.00852126 1.32458e-19)
(4.91805 0.00868829 0)
(4.92018 0.00853691 0)
(4.90144 0.00991403 0)
(4.91423 0.00767817 0)
(4.87988 0.0133653 2.37957e-19)
(4.9085 0.0049751 0)
(4.85646 0.0198999 0)
(4.89511 0.00151008 0)
(4.83847 0.0274849 0)
(4.86489 0.00158415 0)
(4.82623 0.0340076 0)
(4.81872 0.00641417 2.0131e-19)
(4.80672 0.0453158 0)
(4.75862 0.0132779 0)
(4.77124 0.0674449 3.71827e-19)
(4.66725 0.033443 -1.80856e-19)
(4.7118 0.104899 1.7572e-19)
(4.52202 0.0886945 -1.708e-19)
(-0.0323409 0.838937 0)
(-0.176946 0.959667 2.33703e-19)
(-0.327394 0.962779 0)
(-0.46609 1.0027 1.15041e-19)
(-0.601391 1.00377 0)
(-0.747206 1.02139 0)
(-0.88412 1.02978 -1.12882e-19)
(-1.03322 1.03039 0)
(-1.18883 1.03513 0)
(-1.34699 1.04001 0)
(-1.50804 1.04258 0)
(-1.67131 1.04517 0)
(-1.83593 1.04488 4.31699e-19)
(-2.003 1.04014 2.14521e-19)
(-2.17098 1.03192 -2.13009e-19)
(-2.33964 1.01724 0)
(-2.50773 0.996873 0)
(-2.67436 0.967588 0)
(-2.83787 0.930926 0)
(-2.99661 0.883033 0)
(-3.1489 0.825713 2.03925e-19)
(-3.29197 0.755893 2.02359e-19)
(-3.42398 0.674719 -2.00758e-19)
(-3.5416 0.580874 1.99117e-19)
(-3.64266 0.475076 0)
(-3.72385 0.35766 0)
(-3.78237 0.229818 1.9311e-19)
(-3.81536 0.0932869 0)
(-3.82066 -0.0499658 0)
(-3.79518 -0.197126 1.87311e-19)
(-3.73863 -0.344478 1.85977e-19)
(-3.65077 -0.48936 1.83838e-19)
(-3.53149 -0.628889 0)
(-3.38383 -0.758209 0)
(-3.20905 -0.875837 -1.7715e-19)
(-3.01182 -0.981291 0)
(-2.7931 -1.06943 0)
(-2.55919 -1.14364 1.69928e-19)
(-2.31106 -1.20068 -1.68388e-19)
(-2.05426 -1.24272 1.66117e-19)
(-1.79129 -1.27023 0)
(-1.52462 -1.28398 0)
(-1.25657 -1.28583 3.1878e-19)
(-0.99037 -1.27708 0)
(-0.727157 -1.25921 3.10688e-19)
(-0.467816 -1.23417 4.60081e-19)
(-0.213851 -1.20297 -4.54422e-19)
(0.0325622 -1.16704 2.99338e-19)
(0.271729 -1.12762 0)
(0.504791 -1.08537 0)
(0.730473 -1.04108 2.88878e-19)
(0.948569 -0.995417 1.42726e-19)
(1.15895 -0.948937 0)
(1.36152 -0.902103 0)
(1.55628 -0.855312 1.38007e-19)
(1.74324 -0.808902 2.73091e-19)
(1.92247 -0.763167 0)
(2.09408 -0.718363 -2.67165e-19)
(2.25819 -0.67471 2.64399e-19)
(2.41497 -0.632391 -2.61605e-19)
(2.5646 -0.591551 0)
(2.70731 -0.55231 0)
(2.84331 -0.514759 0)
(2.97283 -0.478961 0)
(3.0961 -0.444949 0)
(3.21337 -0.41273 -2.45615e-19)
(3.32488 -0.382306 0)
(3.43086 -0.353651 0)
(3.53153 -0.326725 0)
(3.62712 -0.30149 -4.71259e-19)
(3.71784 -0.277867 -2.33162e-19)
(3.80389 -0.255812 -2.30739e-19)
(3.88548 -0.235261 4.5671e-19)
(3.96278 -0.216126 -2.25988e-19)
(4.03598 -0.19835 2.23584e-19)
(4.10529 -0.181854 0)
(4.17084 -0.166565 -2.18902e-19)
(4.23281 -0.152392 0)
(4.29135 -0.139285 0)
(4.34664 -0.12717 0)
(4.39881 -0.115965 -4.19481e-19)
(4.44802 -0.105633 2.07494e-19)
(4.4944 -0.0960891 2.05271e-19)
(4.53812 -0.0872854 4.06045e-19)
(4.57929 -0.0791881 6.02406e-19)
(4.61805 -0.071704 1.98591e-19)
(4.6545 -0.0648396 0)
(4.68871 -0.0585623 3.88492e-19)
(4.72088 -0.0527413 0)
(4.75116 -0.0473629 5.69806e-19)
(4.77962 -0.0424245 0)
(4.80629 -0.0378885 5.57047e-19)
(4.83128 -0.0337265 0)
(4.85472 -0.0299072 0)