/*--------------------------------*- C++ -*----------------------------------*\
| =========                 |                                                 |
| \\      /  F ield         | OpenFOAM: The Open Source CFD Toolbox           |
|  \\    /   O peration     | Version:  2.1.x                                 |
|   \\  /    A nd           | Web:      www.OpenFOAM.org                      |
|    \\/     M anipulation  |                                                 |
\*---------------------------------------------------------------------------*/
FoamFile
{
    version     2.0;
    format      ascii;
    class       volVectorField;
    location    "0.007";
    object      UMean;
}
// * * * * * * * * * * * * * * * * * * * * * * * * * * * * * * * * * * * * * //

dimensions      [0 1 -1 0 0 0 0];

internalField   nonuniform List<vector> 
12225
(
(7.10444 0.392019 0)
(4.60909 0.182151 0)
(3.32114 0.02564 0)
(2.74347 -0.0130919 0)
(2.50602 -0.0146974 0)
(2.44656 -0.0104341 0)
(2.40447 -0.0058645 0)
(2.4451 -0.00554293 0)
(2.4341 -0.00493339 0)
(2.51599 -0.00630469 0)
(2.52755 -0.00867652 0)
(2.64626 -0.00753029 0)
(2.71249 -0.0153184 0)
(2.83363 -0.00880419 0)
(3.07952 -0.0356381 0)
(3.09467 0.00722793 0)
(3.81093 -0.169039 0)
(3.76056 0.0289749 0)
(9.70238 0.93115 0)
(9.06972 0.781061 0)
(8.03956 0.395416 0)
(7.19714 0.187282 0)
(6.59898 0.0809355 0)
(6.34221 0.0297289 0)
(6.10243 0.00403385 0)
(6.12876 -0.0075889 0)
(5.99798 -0.0149363 0)
(6.15209 -0.028319 0)
(6.08128 -0.0271908 0)
(6.30873 -0.0634188 0)
(6.33172 -0.0390609 0)
(6.5949 -0.125897 0)
(6.78078 -0.0759634 0)
(7.09612 -0.228779 0)
(7.5187 -0.274305 0)
(8.02534 -0.516545 0)
(9.98719 0.759164 0)
(10.612 0.840437 0)
(10.4521 0.519513 0)
(10.0567 0.327705 0)
(9.56482 0.208202 0)
(9.29614 0.128035 0)
(8.99924 0.0653795 0)
(8.93709 0.024043 0)
(8.78136 -0.00457491 0)
(8.83676 -0.0380789 0)
(8.78786 -0.0552003 0)
(8.91719 -0.0992848 0)
(8.96797 -0.116338 0)
(9.1626 -0.180475 0)
(9.31918 -0.218741 0)
(9.60235 -0.336534 0)
(9.87057 -0.46813 0)
(10.2451 -0.819988 0)
(9.87406 0.564961 0)
(10.7079 0.754788 0)
(11.0226 0.522595 0)
(11.0483 0.366595 0)
(10.9121 0.267558 0)
(10.7976 0.189454 0)
(10.6885 0.127484 0)
(10.6125 0.0663794 0)
(10.5772 0.029622 0)
(10.5429 -0.0236776 0)
(10.5744 -0.0527408 0)
(10.5867 -0.108665 0)
(10.6834 -0.148298 0)
(10.7473 -0.215626 0)
(10.9095 -0.299161 0)
(11.0334 -0.413966 0)
(11.2472 -0.61035 0)
(11.3929 -0.881083 0)
(9.87385 0.442285 0)
(10.5315 0.633956 0)
(10.8952 0.483811 0)
(11.0467 0.321439 0)
(11.0653 0.24941 0)
(11.0763 0.165228 0)
(11.076 0.130957 0)
(11.0984 0.0518996 0)
(11.1199 0.0309406 0)
(11.1547 -0.044652 0)
(11.1966 -0.0634669 0)
(11.2506 -0.142802 0)
(11.3227 -0.178355 0)
(11.405 -0.277507 0)
(11.5114 -0.358919 0)
(11.6194 -0.514304 0)
(11.7481 -0.694988 0)
(11.821 -0.950952 0)
(9.89741 0.338894 0)
(10.3853 0.538838 0)
(10.7176 0.448774 0)
(10.8734 0.308648 0)
(10.9416 0.224182 0)
(10.9684 0.161563 0)
(11.0052 0.110614 0)
(11.0405 0.0560709 0)
(11.0899 0.00467625 0)
(11.1382 -0.0489451 0)
(11.1986 -0.102293 0)
(11.2605 -0.163555 0)
(11.3352 -0.232614 0)
(11.4152 -0.320721 0)
(11.5038 -0.429886 0)
(11.591 -0.576518 0)
(11.6654 -0.752904 0)
(11.7105 -0.980709 0)
(9.8429 0.236188 0)
(10.2186 0.407016 0)
(10.4957 0.380632 0)
(10.6452 0.252502 0)
(10.7287 0.179789 0)
(10.7675 0.1109 0)
(10.8102 0.0752254 0)
(10.8514 0.0161194 0)
(10.9055 -0.0247418 0)
(10.9582 -0.0873218 0)
(11.0204 -0.137816 0)
(11.0812 -0.208777 0)
(11.1517 -0.278482 0)
(11.2228 -0.375455 0)
(11.2974 -0.486185 0)
(11.3612 -0.629254 0)
(11.4149 -0.797688 0)
(11.4445 -0.99893 0)
(9.8688 0.203659 0)
(10.1763 0.361891 0)
(10.3974 0.349535 0)
(10.5364 0.258326 0)
(10.6241 0.172552 0)
(10.6734 0.109549 0)
(10.7173 0.0600186 0)
(10.7612 0.00997508 0)
(10.813 -0.0428253 0)
(10.8651 -0.100397 0)
(10.9231 -0.16218 0)
(10.9808 -0.232198 0)
(11.0445 -0.31236 0)
(11.1083 -0.409234 0)
(11.1715 -0.524011 0)
(11.2261 -0.661534 0)
(11.2698 -0.818955 0)
(11.287 -0.991583 0)
(9.84629 0.137517 0)
(10.1154 0.278445 0)
(10.3041 0.286032 0)
(10.4316 0.217098 0)
(10.5212 0.140639 0)
(10.5764 0.0738857 0)
(10.6233 0.0279725 0)
(10.667 -0.0218446 0)
(10.7164 -0.0715094 0)
(10.7655 -0.130853 0)
(10.8189 -0.193509 0)
(10.8717 -0.268549 0)
(10.928 -0.350536 0)
(10.983 -0.449855 0)
(11.0363 -0.562682 0)
(11.0797 -0.695213 0)
(11.1081 -0.840648 0)
(11.1127 -1.00115 0)
(9.87081 0.118556 0)
(10.0881 0.230301 0)
(10.2377 0.245379 0)
(10.3445 0.195976 0)
(10.4286 0.127992 0)
(10.4865 0.0604969 0)
(10.537 0.00810851 0)
(10.5809 -0.0428242 0)
(10.6307 -0.0932029 0)
(10.6782 -0.152199 0)
(10.7297 -0.21691 0)
(10.7777 -0.293506 0)
(10.8272 -0.378503 0)
(10.8717 -0.478404 0)
(10.9132 -0.589485 0)
(10.9421 -0.715271 0)
(10.9588 -0.852079 0)
(10.9545 -0.998887 0)
(9.94632 0.0837835 0)
(10.1434 0.171073 0)
(10.2607 0.192375 0)
(10.3497 0.156625 0)
(10.4261 0.100047 0)
(10.4863 0.0365063 0)
(10.5352 -0.0197992 0)
(10.5758 -0.072403 0)
(10.6155 -0.125218 0)
(10.6538 -0.184526 0)
(10.6929 -0.250887 0)
(10.7307 -0.327252 0)
(10.7672 -0.412611 0)
(10.7999 -0.508819 0)
(10.8269 -0.615502 0)
(10.8434 -0.733101 0)
(10.8476 -0.857748 0)
(10.8341 -0.986729 0)
(9.84248 0.05443 0)
(10.0198 0.12032 0)
(10.1191 0.139545 0)
(10.1969 0.114136 0)
(10.267 0.0679582 0)
(10.3275 0.0108582 0)
(10.3795 -0.0442183 0)
(10.4244 -0.0986369 0)
(10.4655 -0.152689 0)
(10.5046 -0.212954 0)
(10.5418 -0.279399 0)
(10.5767 -0.355696 0)
(10.6077 -0.439727 0)
(10.6337 -0.533329 0)
(10.6523 -0.634225 0)
(10.6609 -0.74292 0)
(10.6568 -0.855854 0)
(10.6391 -0.972511 0)
(9.9072 0.0468171 0)
(10.0559 0.0783179 0)
(10.13 0.0887556 0)
(10.1846 0.0705045 0)
(10.2405 0.0329979 0)
(10.2914 -0.0176621 0)
(10.3392 -0.0717583 0)
(10.3796 -0.130009 0)
(10.417 -0.18844 0)
(10.4484 -0.251177 0)
(10.4771 -0.316598 0)
(10.5009 -0.38919 0)
(10.5224 -0.466908 0)
(10.5375 -0.552803 0)
(10.5474 -0.644247 0)
(10.5478 -0.742172 0)
(10.5395 -0.842957 0)
(10.5188 -0.947774 0)
(9.89573 0.0256552 0)
(10.0382 0.0398095 0)
(10.0982 0.0423513 0)
(10.1385 0.0241358 0)
(10.1847 -0.00727279 0)
(10.232 -0.0518463 0)
(10.2782 -0.0999096 0)
(10.317 -0.155352 0)
(10.3507 -0.212199 0)
(10.3767 -0.275055 0)
(10.398 -0.339231 0)
(10.413 -0.410591 0)
(10.4252 -0.485012 0)
(10.4318 -0.567206 0)
(10.435 -0.651502 0)
(10.4304 -0.741287 0)
(10.4187 -0.832335 0)
(10.3954 -0.925883 0)
(9.94387 0.0154714 0)
(10.0769 0.014229 0)
(10.1267 0.00602341 0)
(10.1545 -0.0170452 0)
(10.1852 -0.0479618 0)
(10.2212 -0.0901398 0)
(10.2581 -0.135645 0)
(10.2923 -0.188681 0)
(10.3223 -0.243054 0)
(10.3466 -0.30338 0)
(10.3637 -0.364233 0)
(10.3734 -0.430929 0)
(10.3764 -0.498837 0)
(10.3736 -0.572286 0)
(10.365 -0.646215 0)
(10.3508 -0.724621 0)
(10.3296 -0.802621 0)
(10.2984 -0.883609 0)
(9.84597 -0.00181223 0)
(9.97862 -0.0162088 0)
(10.0244 -0.0311231 0)
(10.046 -0.0544487 0)
(10.0705 -0.0831022 0)
(10.1013 -0.121643 0)
(10.1342 -0.164457 0)
(10.165 -0.213886 0)
(10.1908 -0.264448 0)
(10.2099 -0.319603 0)
(10.2203 -0.3753 0)
(10.2225 -0.435233 0)
(10.2172 -0.495741 0)
(10.2062 -0.560219 0)
(10.1897 -0.625393 0)
(10.1687 -0.693747 0)
(10.1411 -0.76027 0)
(10.1056 -0.830159 0)
(9.82315 -0.0178138 0)
(9.94527 -0.043554 0)
(9.98328 -0.069229 0)
(9.99743 -0.100679 0)
(10.0194 -0.134143 0)
(10.0464 -0.17384 0)
(10.0773 -0.213021 0)
(10.1032 -0.255192 0)
(10.1257 -0.296302 0)
(10.1383 -0.341731 0)
(10.1443 -0.387849 0)
(10.1397 -0.438581 0)
(10.13 -0.489478 0)
(10.1124 -0.544104 0)
(10.0914 -0.598325 0)
(10.0637 -0.654823 0)
(10.0327 -0.708832 0)
(9.99526 -0.764943 0)
(9.88522 -0.0119106 0)
(9.99965 -0.055526 0)
(10.0315 -0.093165 0)
(10.0422 -0.129905 0)
(10.0571 -0.16424 0)
(10.0743 -0.201345 0)
(10.0946 -0.235942 0)
(10.1099 -0.271302 0)
(10.1217 -0.304222 0)
(10.125 -0.33957 0)
(10.1239 -0.374818 0)
(10.115 -0.413658 0)
(10.1025 -0.453354 0)
(10.083 -0.496625 0)
(10.0602 -0.54004 0)
(10.0313 -0.586476 0)
(9.99962 -0.633675 0)
(9.96135 -0.680266 0)
(9.86154 -0.0252413 0)
(9.99075 -0.0829908 0)
(10.0313 -0.129267 0)
(10.0461 -0.16907 0)
(10.0626 -0.199292 0)
(10.0819 -0.227024 0)
(10.1021 -0.25223 0)
(10.1161 -0.280515 0)
(10.1241 -0.308897 0)
(10.1239 -0.340171 0)
(10.1188 -0.371129 0)
(10.1074 -0.404317 0)
(10.092 -0.436887 0)
(10.0708 -0.471421 0)
(10.0461 -0.505244 0)
(10.0159 -0.540554 0)
(9.98238 -0.573472 0)
(9.94254 -0.608118 0)
(9.85814 -0.0436046 0)
(9.99525 -0.104669 0)
(10.0425 -0.157994 0)
(10.0631 -0.200871 0)
(10.0844 -0.228917 0)
(10.1065 -0.250286 0)
(10.1277 -0.267526 0)
(10.1409 -0.286865 0)
(10.1459 -0.306153 0)
(10.1401 -0.328222 0)
(10.127 -0.350545 0)
(10.1065 -0.375412 0)
(10.0829 -0.399949 0)
(10.055 -0.426182 0)
(10.0255 -0.45117 0)
(9.99213 -0.477403 0)
(9.95677 -0.502913 0)
(9.91706 -0.52939 0)
(9.91929 -0.0590957 0)
(10.0531 -0.138794 0)
(10.1052 -0.1982 0)
(10.1361 -0.238954 0)
(10.1661 -0.260987 0)
(10.1914 -0.273608 0)
(10.2106 -0.281099 0)
(10.2194 -0.28995 0)
(10.2196 -0.299885 0)
(10.2089 -0.314045 0)
(10.1911 -0.330059 0)
(10.1663 -0.349506 0)
(10.1386 -0.369367 0)
(10.1072 -0.390875 0)
(10.0742 -0.411188 0)
(10.0376 -0.432027 0)
(9.99864 -0.451246 0)
(9.95488 -0.471201 0)
(9.84972 -0.0657952 0)
(10.0059 -0.169729 0)
(10.0784 -0.240576 0)
(10.1309 -0.277972 0)
(10.1816 -0.287388 0)
(10.2211 -0.285621 0)
(10.2478 -0.28041 0)
(10.2584 -0.280253 0)
(10.2575 -0.284568 0)
(10.244 -0.294196 0)
(10.2235 -0.304988 0)
(10.1956 -0.317742 0)
(10.1653 -0.329924 0)
(10.1308 -0.343319 0)
(10.0952 -0.35599 0)
(10.0554 -0.370033 0)
(10.0135 -0.383669 0)
(9.9666 -0.398979 0)
(9.95122 -0.101663 0)
(10.1229 -0.236739 0)
(10.2181 -0.314752 0)
(10.2911 -0.338682 0)
(10.3519 -0.331093 0)
(10.3934 -0.314126 0)
(10.4163 -0.297485 0)
(10.4199 -0.288848 0)
(10.4114 -0.285798 0)
(10.3925 -0.288069 0)
(10.3684 -0.29163 0)
(10.3389 -0.297555 0)
(10.3079 -0.303538 0)
(10.2738 -0.311371 0)
(10.2385 -0.319216 0)
(10.1989 -0.328775 0)
(10.1567 -0.338157 0)
(10.1087 -0.349056 0)
(9.88716 -0.113348 0)
(10.1003 -0.29081 0)
(10.2369 -0.367685 0)
(10.3392 -0.371236 0)
(10.4119 -0.343387 0)
(10.4535 -0.310462 0)
(10.4682 -0.285955 0)
(10.4621 -0.272606 0)
(10.4453 -0.265542 0)
(10.4212 -0.263215 0)
(10.3938 -0.262386 0)
(10.3628 -0.263435 0)
(10.3301 -0.264639 0)
(10.2942 -0.267481 0)
(10.2563 -0.270636 0)
(10.214 -0.275464 0)
(10.1683 -0.280429 0)
(10.1171 -0.286795 0)
(9.90181 -0.186703 0)
(10.1711 -0.397774 0)
(10.3611 -0.458774 0)
(10.4941 -0.434766 0)
(10.5735 -0.378956 0)
(10.6079 -0.330053 0)
(10.6116 -0.297478 0)
(10.5979 -0.277181 0)
(10.5767 -0.263594 0)
(10.5502 -0.254942 0)
(10.5207 -0.248855 0)
(10.4873 -0.24509 0)
(10.4517 -0.242255 0)
(10.4125 -0.241059 0)
(10.3713 -0.240475 0)
(10.3261 -0.241192 0)
(10.2779 -0.242148 0)
(10.2244 -0.244051 0)
(9.82916 -0.245977 0)
(10.1756 -0.495733 0)
(10.4406 -0.531025 0)
(10.6138 -0.469291 0)
(10.7031 -0.390661 0)
(10.7296 -0.332803 0)
(10.7212 -0.29391 0)
(10.6962 -0.266337 0)
(10.6638 -0.245922 0)
(10.6273 -0.230839 0)
(10.5879 -0.219388 0)
(10.5461 -0.211043 0)
(10.5016 -0.204855 0)
(10.455 -0.200884 0)
(10.4058 -0.198061 0)
(10.3543 -0.19639 0)
(10.2992 -0.194595 0)
(10.2404 -0.193025 0)
(9.89089 -0.339212 0)
(10.3621 -0.626748 0)
(10.7008 -0.623007 0)
(10.8725 -0.513035 0)
(10.9167 -0.417318 0)
(10.8825 -0.349875 0)
(10.8152 -0.301272 0)
(10.7332 -0.263549 0)
(10.6491 -0.2357 0)
(10.563 -0.214385 0)
(10.4797 -0.199137 0)
(10.3955 -0.187184 0)
(10.314 -0.178604 0)
(10.2311 -0.171643 0)
(10.1506 -0.166405 0)
(10.0684 -0.161658 0)
(9.98726 -0.156804 0)
(9.90235 -0.151183 0)
(9.88947 -0.448225 0)
(10.4864 -0.781638 0)
(10.7165 -0.68782 0)
(10.6662 -0.512639 0)
(10.4685 -0.384646 0)
(10.2257 -0.298034 0)
(9.98853 -0.23854 0)
(9.76957 -0.194919 0)
(9.57491 -0.164815 0)
(9.39787 -0.141518 0)
(9.24217 -0.125939 0)
(9.09646 -0.112521 0)
(8.96829 -0.104225 0)
(8.84358 -0.0959258 0)
(8.73483 -0.0915215 0)
(8.62422 -0.0858061 0)
(8.52837 -0.081813 0)
(8.42495 -0.0739145 0)
(9.93614 -0.700291 0)
(9.95507 -0.940252 0)
(9.41778 -0.71996 0)
(8.72608 -0.480265 0)
(8.0965 -0.303344 0)
(7.59986 -0.185083 0)
(7.22519 -0.11398 0)
(6.94256 -0.0738251 0)
(6.72473 -0.0526551 0)
(6.5514 -0.0404875 0)
(6.41184 -0.0349645 0)
(6.29141 -0.0306216 0)
(6.19252 -0.0301976 0)
(6.09792 -0.0278723 0)
(6.02311 -0.0298285 0)
(5.94 -0.027722 0)
(5.8826 -0.0308705 0)
(5.79823 -0.0265233 0)
(8.52132 -0.396179 0)
(6.30608 -0.346296 0)
(4.65728 -0.12751 0)
(3.67004 -0.0149619 0)
(3.14998 0.0238868 0)
(2.88557 0.0319475 0)
(2.74709 0.0271802 0)
(2.66781 0.0194281 0)
(2.61419 0.0128741 0)
(2.57296 0.00833845 0)
(2.53707 0.00534453 0)
(2.50476 0.00355875 0)
(2.47435 0.00232539 0)
(2.44481 0.00205679 0)
(2.41826 0.00046156 0)
(2.38692 0.00239404 0)
(2.3653 -0.00631823 0)
(2.31233 0.00941661 0)
(-0.0187572 0.0376532 0)
(-0.0519523 0.0337998 0)
(-0.0815699 0.0320572 0)
(-0.111585 0.0309568 0)
(-0.140281 0.0296034 0)
(-0.168162 0.0279826 0)
(-0.194388 0.0261239 3.01754e-20)
(-0.218942 0.0239928 -2.99593e-20)
(-0.241418 0.021645 0)
(-0.261542 0.0190962 -2.95341e-20)
(-0.278859 0.0163375 0)
(-0.292977 0.0133229 0)
(-0.30376 0.0100571 0)
(-0.310733 0.00655666 2.87139e-20)
(-0.313545 0.00279009 0)
(-0.31167 -0.00121675 0)
(-0.304844 -0.00550932 -2.81285e-20)
(-0.292684 -0.00998748 0)
(-0.274829 -0.0147348 0)
(-0.251003 -0.0196185 0)
(-0.220879 -0.0246841 2.7393e-20)
(-0.184153 -0.0298057 0)
(-0.140608 -0.034972 2.70455e-20)
(-0.0902943 -0.0401485 0)
(-0.0330822 -0.0452193 0)
(0.0309717 -0.0501018 2.65483e-20)
(0.101819 -0.0547468 0)
(0.179203 -0.0591169 -2.62304e-20)
(0.262808 -0.0630947 0)
(0.352286 -0.0666412 2.59203e-20)
(0.447131 -0.0696983 0)
(0.546809 -0.072229 0)
(0.650712 -0.0741755 0)
(0.7582 -0.0755213 0)
(0.868564 -0.0762539 0)
(0.981082 -0.0763784 -2.49997e-20)
(1.09503 -0.0759014 0)
(1.20966 -0.0748431 4.93671e-20)
(1.32435 -0.0732337 0)
(1.4383 -0.0711787 -4.8716e-20)
(1.55082 -0.0686447 0)
(1.6615 -0.0657078 0)
(1.76977 -0.0624738 4.76987e-20)
(1.87506 -0.0589661 0)
(1.97704 -0.0552453 4.69932e-20)
(2.07537 -0.051417 -4.66329e-20)
(2.16973 -0.0474882 0)
(2.2599 -0.0435467 -4.58987e-20)
(2.34574 -0.0396083 -4.55256e-20)
(2.42717 -0.0357168 0)
(2.50414 -0.0319133 0)
(2.57659 -0.0282306 0)
(2.64454 -0.0246921 0)
(2.70804 -0.0213154 0)
(2.76717 -0.0181163 4.32309e-20)
(2.82202 -0.0151084 0)
(2.87272 -0.0123 -4.24541e-20)
(2.9194 -0.00969363 0)
(2.96221 -0.00728962 0)
(3.00133 -0.00508846 4.12874e-20)
(3.03691 -0.00308843 0)
(3.06914 -0.00128362 -4.05118e-20)
(3.09819 0.000334759 0)
(3.12425 0.00177559 0)
(3.14751 0.00304716 0)
(3.16814 0.00415971 3.89738e-20)
(3.18631 0.0051244 0)
(3.20221 0.00595417 0)
(3.21599 0.00666027 3.78368e-20)
(3.22782 0.00725312 0)
(3.23784 0.00774311 3.70884e-20)
(3.24622 0.00813663 0)
(3.25307 0.00843956 0)
(3.25853 0.00865602 0)
(3.26273 0.00878659 -3.56175e-20)
(3.26575 0.00884073 0)
(3.26773 0.00884487 0)
(3.26875 0.00882131 -3.45385e-20)
(3.26889 0.00877734 -3.41836e-20)
(3.26825 0.00871381 0)
(3.26688 0.00863338 -3.3481e-20)
(3.26486 0.00853879 0)
(3.26224 0.00843351 -6.55764e-20)
(3.25907 0.00832109 0)
(3.25541 0.00820409 -6.42101e-20)
(3.25128 0.00808523 0)
(3.24673 0.00797046 6.28632e-20)
(3.24179 0.00786215 0)
(3.23651 0.00775423 0)
(3.2309 0.0076429 0)
(3.22501 0.00752868 -6.02268e-20)
(3.21885 0.00741317 0)
(3.21245 0.0072982 5.89369e-20)
(3.20583 0.00718441 0)
(3.19901 0.00707124 -5.76655e-20)
(3.192 0.00695846 -5.70367e-20)
(3.18482 0.00684679 -5.64124e-20)
(3.17748 0.00673697 0)
(3.17 0.00662944 0)
(3.16239 0.00652457 0)
(3.15466 0.0064224 0)
(3.14681 0.00632274 0)
(3.13886 0.00622553 0)
(3.13081 0.00613072 0)
(3.12268 0.00603813 0)
(3.11446 0.00594775 5.09914e-20)
(3.10617 0.00585978 5.04104e-20)
(3.09781 0.00577426 0)
(3.08938 0.0056907 0)
(3.08088 0.00560847 0)
(3.07233 0.00552743 4.81268e-20)
(3.06374 0.00544809 0)
(3.05509 0.00537109 0)
(3.0464 0.00529646 0)
(3.03766 0.00522353 0)
(3.02889 0.00515148 -4.53612e-20)
(3.02007 0.00508003 0)
(3.01123 0.00500963 0)
(3.00235 0.00494098 4.37474e-20)
(2.99344 0.00487438 -4.32169e-20)
(2.98451 0.00480947 0)
(2.97555 0.00474553 -4.21667e-20)
(2.96656 0.00468198 0)
(2.95755 0.00461869 4.11308e-20)
(2.94851 0.00455601 0)
(2.93947 0.00449448 0)
(2.9304 0.00443455 0)
(2.92132 0.00437632 0)
(2.91222 0.00431937 0)
(2.90309 0.00426302 -7.62114e-20)
(2.89396 0.00420668 -7.52265e-20)
(2.88481 0.00415025 0)
(2.87564 0.00409429 0)
(2.86647 0.00403954 0)
(2.85729 0.00398645 7.13516e-20)
(2.84809 0.00393471 0)
(2.83888 0.00388348 0)
(2.82965 0.003832 0)
(2.82041 0.00378016 6.75769e-20)
(2.81117 0.00372857 -6.66484e-20)
(2.80192 0.00367802 0)
(2.79266 0.00362893 0)
(2.78339 0.00358099 -6.38986e-20)
(2.7741 0.00353348 -6.29936e-20)
(2.76481 0.00348583 0)
(2.75551 0.00343802 0)
(2.7462 0.00339055 6.03127e-20)
(2.73688 0.0033441 -5.94302e-20)
(2.72755 0.00329906 0)
(2.71821 0.00325524 0)
(2.70886 0.00321215 -5.68155e-20)
(2.6995 0.00316942 0)
(2.69011 0.00312704 0)
(2.68071 0.00308523 -5.42486e-20)
(2.6713 0.00304447 0)
(2.66186 0.00300514 -5.25632e-20)
(2.65239 0.00296813 0)
(2.64289 0.00293248 0)
(2.63333 0.00290114 0)
(2.62374 0.0028683 4.9253e-20)
(2.61405 0.00284676 0)
(2.60433 0.00281164 0)
(2.59439 0.00281608 0)
(2.58454 0.00275844 0)
(2.57409 0.00283761 0)
(2.5642 0.002696 0)
(2.55265 0.00295791 4.36503e-20)
(2.54303 0.0026132 4.28706e-20)
(2.52924 0.00322206 0)
(2.52048 0.00256202 0)
(2.50258 0.00362504 0)
(2.49522 0.0027454 -3.98075e-20)
(2.4706 0.00412287 0)
(2.46431 0.00352853 7.66349e-20)
(2.4294 0.00491499 -7.51671e-20)
(2.4204 0.0053249 -7.37348e-20)
(2.37217 0.00773318 7.23175e-20)
(2.3388 0.00748004 -7.0959e-20)
(2.29113 0.0258461 6.9636e-20)
(2.10979 0.00616696 0)
(-0.0190154 0.113246 0)
(-0.0541887 0.101254 0)
(-0.0849545 0.0956945 -6.20927e-20)
(-0.116291 0.0929572 0)
(-0.146472 0.0892762 6.11987e-20)
(-0.175916 0.0847707 6.0758e-20)
(-0.203898 0.0793036 3.01435e-20)
(-0.230272 0.0728479 2.99621e-20)
(-0.254432 0.0654613 0)
(-0.27614 0.0570855 2.95369e-20)
(-0.294923 0.0477854 0)
(-0.310288 0.0374761 0)
(-0.321877 0.0261626 -5.78005e-20)
(-0.329202 0.0138773 -2.87166e-20)
(-0.331839 0.000601888 5.70018e-20)
(-0.329239 -0.0136097 5.66115e-20)
(-0.320982 -0.0287484 2.81313e-20)
(-0.30672 -0.0446449 0)
(-0.286025 -0.0613266 0)
(-0.258535 -0.078572 0)
(-0.223972 -0.096326 2.73617e-20)
(-0.181967 -0.114327 0)
(-0.13246 -0.132516 -8.11131e-20)
(-0.0753143 -0.150648 0)
(-0.0103492 -0.168467 0)
(0.0622465 -0.185771 -2.65516e-20)
(0.142338 -0.202344 0)
(0.22976 -0.218034 2.62338e-20)
(0.324222 -0.232565 5.21333e-20)
(0.425274 -0.245803 -2.59239e-20)
(0.532428 -0.257504 0)
(0.645147 -0.267598 0)
(0.762827 -0.275926 0)
(0.88479 -0.282439 5.06146e-20)
(1.01033 -0.28707 5.03091e-20)
(1.13871 -0.289838 2.50039e-20)
(1.26922 -0.290773 0)
(1.40111 -0.289947 -4.93758e-20)
(1.5337 -0.287436 0)
(1.6663 -0.283437 4.8725e-20)
(1.79826 -0.278021 0)
(1.92904 -0.271311 0)
(2.05814 -0.263609 -4.77082e-20)
(2.18509 -0.254971 0)
(2.30943 -0.245606 -1.41011e-19)
(2.4309 -0.235677 4.66429e-20)
(2.5492 -0.225316 0)
(2.66407 -0.214673 4.59089e-20)
(2.77542 -0.203845 4.5536e-20)
(2.88308 -0.192941 0)
(2.98697 -0.182061 0)
(3.087 -0.171288 0)
(3.18315 -0.160687 0)
(3.27541 -0.150314 0)
(3.36378 -0.140219 -4.32419e-20)
(3.44829 -0.130446 -8.57068e-20)
(3.52899 -0.121024 4.24653e-20)
(3.60593 -0.111975 0)
(3.67919 -0.103319 -8.33729e-20)
(3.74885 -0.095072 4.12966e-20)
(3.81498 -0.0872457 0)
(3.8777 -0.0798413 4.05232e-20)
(3.93709 -0.072857 0)
(3.99326 -0.0662907 0)
(4.04633 -0.0601378 7.87323e-20)
(4.0964 -0.054392 -3.89851e-20)
(4.14358 -0.0490373 7.72057e-20)
(4.188 -0.0440595 -7.64475e-20)
(4.22976 -0.0394458 -3.7848e-20)
(4.26898 -0.03518 0)
(4.30578 -0.0312481 -3.70995e-20)
(4.34025 -0.027632 0)
(4.37252 -0.0243138 0)
(4.40268 -0.0212771 0)
(4.43085 -0.0185072 -3.56259e-20)
(4.45713 -0.0159827 0)
(4.4816 -0.0136828 -6.98107e-20)
(4.50438 -0.0115861 1.03645e-19)
(4.52554 -0.0096747 3.41941e-20)
(4.54517 -0.00793569 0)
(4.56336 -0.00635328 3.34913e-20)
(4.58018 -0.00491537 0)
(4.59573 -0.00360978 6.55966e-20)
(4.61007 -0.00242475 0)
(4.62327 -0.00135461 6.423e-20)
(4.6354 -0.000390196 -1.27105e-19)
(4.64651 0.000479184 -6.28828e-20)
(4.65667 0.00125729 0)
(4.66592 0.0019546 0)
(4.67433 0.00258374 0)
(4.68194 0.00315166 6.02457e-20)
(4.6888 0.00366311 0)
(4.69496 0.00412354 -5.89555e-20)
(4.70047 0.00453911 0)
(4.70535 0.00491476 1.73049e-19)
(4.70965 0.00525284 5.70548e-20)
(4.7134 0.0055555 5.64304e-20)
(4.71663 0.00582721 0)
(4.71938 0.00607124 0)
(4.72168 0.00628871 0)
(4.72354 0.00648086 0)
(4.72499 0.00664992 0)
(4.72606 0.00679879 1.05552e-19)
(4.72678 0.00693003 1.04365e-19)
(4.72716 0.00704519 0)
(4.72722 0.00714513 -5.10081e-20)
(4.72697 0.00723089 -5.04269e-20)
(4.72645 0.00730399 0)
(4.72565 0.00736585 -9.85525e-20)
(4.7246 0.00741734 0)
(4.72332 0.00745905 4.81418e-20)
(4.72181 0.00749172 0)
(4.72009 0.0075164 0)
(4.71817 0.00753405 -9.29421e-20)
(4.71605 0.00754513 0)
(4.71375 0.00754974 4.53766e-20)
(4.71128 0.00754809 0)
(4.70865 0.007541 0)
(4.70586 0.00752963 4.37617e-20)
(4.70293 0.00751478 4.32318e-20)
(4.69986 0.00749654 0)
(4.69665 0.00747442 -4.21807e-20)
(4.69331 0.00744802 0)
(4.68984 0.00741763 4.11446e-20)
(4.68626 0.00738414 8.12642e-20)
(4.68257 0.00734861 0)
(4.67878 0.00731178 0)
(4.67488 0.00727387 0)
(4.67088 0.00723466 0)
(4.66678 0.00719374 7.62391e-20)
(4.66258 0.00715078 2.25761e-19)
(4.6583 0.00710581 0)
(4.65393 0.00705937 0)
(4.64947 0.00701232 0)
(4.64493 0.00696535 -7.13783e-20)
(4.64031 0.00691858 0)
(4.63561 0.00687141 0)
(4.63082 0.00682301 1.37074e-19)
(4.62596 0.00677295 6.7602e-20)
(4.62103 0.00672164 6.66743e-20)
(4.61602 0.00667009 0)
(4.61093 0.00661929 0)
(4.60578 0.00656947 6.39239e-20)
(4.60055 0.00651988 -6.30179e-20)
(4.59525 0.00646956 0)
(4.58987 0.00641822 0)
(4.58442 0.00636648 -6.03373e-20)
(4.57891 0.00631546 1.78363e-19)
(4.57332 0.00626622 0)
(4.56766 0.00621916 0)
(4.56192 0.00617379 5.68394e-20)
(4.5561 0.00612943 0)
(4.55021 0.00608599 1.10245e-19)
(4.54423 0.006044 -5.42714e-20)
(4.53817 0.00600495 0)
(4.53202 0.00596941 5.25864e-20)
(4.52578 0.005941 1.03502e-19)
(4.51944 0.00591622 0)
(4.51296 0.00590731 0)
(4.5064 0.00589388 -4.92756e-20)
(4.49958 0.00592251 0)
(4.49285 0.00591004 9.5299e-20)
(4.4854 0.00602519 0)
(4.47873 0.00597112 0)
(4.4699 0.00629719 0)
(4.46409 0.00607946 0)
(4.45211 0.00688512 -4.36718e-20)
(4.44896 0.00624148 -4.28921e-20)
(4.43074 0.00801357 0)
(4.43256 0.00652516 0)
(4.40484 0.0100518 0)
(4.41191 0.00709235 3.98284e-20)
(4.37397 0.013875 0)
(4.38089 0.00801039 -7.6676e-20)
(4.33636 0.0219149 7.52077e-20)
(4.3284 0.00914081 7.37752e-20)
(4.28652 0.0403026 7.23334e-20)
(4.22941 0.0131165 7.09985e-20)
(4.21153 0.088714 6.95855e-20)
(4.02677 0.0525164 0)
(-0.0193828 0.193239 0)
(-0.0579693 0.174568 0)
(-0.0908474 0.164881 6.20927e-20)
(-0.124991 0.159865 6.15836e-20)
(-0.158137 0.15399 -6.11988e-20)
(-0.190432 0.14644 -6.0758e-20)
(-0.221505 0.137389 -5.96308e-23)
(-0.250864 0.126752 0)
(-0.278101 0.114471 0)
(-0.302829 0.100418 0)
(-0.324547 0.0846776 0)
(-0.342881 0.0671506 0)
(-0.357367 0.0478623 1.7328e-19)
(-0.367503 0.0268544 0)
(-0.372843 0.00410027 -5.70019e-20)
(-0.372754 -0.0202473 -5.66115e-20)
(-0.36677 -0.0462373 0)
(-0.35452 -0.0735793 0)
(-0.335579 -0.102194 0)
(-0.309514 -0.131855 0)
(-0.275976 -0.162333 -5.47578e-20)
(-0.234667 -0.19333 0)
(-0.185421 -0.224529 5.40647e-20)
(-0.127982 -0.255589 0)
(-0.0623116 -0.286093 0)
(0.0114117 -0.315816 0)
(0.0930775 -0.344195 1.05416e-19)
(0.182471 -0.371037 0)
(0.27928 -0.395902 -5.21337e-20)
(0.383063 -0.418525 1.0358e-19)
(0.49325 -0.438573 0)
(0.609159 -0.455855 0)
(0.73018 -0.47017 0)
(0.855553 -0.481403 -5.06151e-20)
(0.984502 -0.489459 -5.03097e-20)
(1.11618 -0.494399 0)
(1.24984 -0.496244 0)
(1.38469 -0.49517 9.87276e-20)
(1.52 -0.49132 9.80891e-20)
(1.65504 -0.484927 -9.74391e-20)
(1.7892 -0.47623 0)
(1.92186 -0.465588 0)
(2.05258 -0.45319 0)
(2.18095 -0.439351 0)
(2.30653 -0.424413 9.40102e-20)
(2.42912 -0.408547 9.32892e-20)
(2.54844 -0.392057 -9.25597e-20)
(2.66432 -0.375115 0)
(2.77668 -0.357932 0)
(2.88542 -0.34067 0)
(2.9905 -0.323466 0)
(3.09188 -0.306439 8.87989e-20)
(3.18957 -0.289689 0)
(3.28358 -0.273303 0)
(3.37394 -0.257349 8.64838e-20)
(3.46071 -0.24188 8.57105e-20)
(3.54395 -0.226935 0)
(3.62373 -0.212549 -1.68302e-19)
(3.70012 -0.198749 8.3377e-20)
(3.77319 -0.185551 -8.25995e-20)
(3.84305 -0.172965 0)
(3.90977 -0.160991 0)
(3.97345 -0.149629 0)
(4.03418 -0.138877 0)
(4.09205 -0.128723 -7.87368e-20)
(4.14717 -0.119153 -1.55935e-19)
(4.19963 -0.110149 -7.72103e-20)
(4.24951 -0.101692 7.64522e-20)
(4.29692 -0.0937667 0)
(4.34194 -0.08635 -1.49887e-19)
(4.38467 -0.0794184 -1.48394e-19)
(4.4252 -0.072947 -1.4691e-19)
(4.46362 -0.0669109 1.45435e-19)
(4.50001 -0.061284 0)
(4.53446 -0.0560457 2.13771e-19)
(4.56706 -0.0511718 0)
(4.59787 -0.046639 -6.98095e-20)
(4.627 -0.0424281 -6.9101e-20)
(4.65449 -0.0385167 0)
(4.68044 -0.0348852 0)
(4.70492 -0.0315137 -1.33967e-19)
(4.728 -0.0283843 0)
(4.74974 -0.0254843 -1.31195e-19)
(4.77022 -0.0227981 0)
(4.78948 -0.020316 1.28463e-19)
(4.8076 -0.0180265 2.54226e-19)
(4.82464 -0.015916 0)
(4.84064 -0.0139755 0)
(4.85568 -0.0121879 0)
(4.86979 -0.010535 1.218e-19)
(4.88303 -0.00900619 0)
(4.89544 -0.00759437 1.19201e-19)
(4.90707 -0.00629103 0)
(4.91796 -0.0050872 0)
(4.92816 -0.0039763 -2.30748e-19)
(4.93769 -0.00295287 0)
(4.94659 -0.00200959 -1.12866e-19)
(4.95491 -0.0011401 0)
(4.96267 -0.000339183 -1.10396e-19)
(4.96992 0.000398841 0)
(4.97666 0.00107847 0)
(4.98295 0.00170297 0)
(4.98879 0.00227679 -3.16681e-19)
(4.99423 0.00280426 -1.04374e-19)
(4.99928 0.0032883 0)
(5.00397 0.00373098 0)
(5.00831 0.00413471 0)
(5.01234 0.00450272 0)
(5.01606 0.0048384 9.85615e-20)
(5.01949 0.00514461 -1.94844e-19)
(5.02266 0.00542337 -9.62935e-20)
(5.02558 0.00567625 1.9034e-19)
(5.02827 0.00590473 1.88112e-19)
(5.03073 0.00611049 9.29508e-20)
(5.03298 0.00629527 0)
(5.03504 0.00646079 1.8152e-19)
(5.03692 0.00660872 0)
(5.03862 0.00674078 -1.77201e-19)
(5.04016 0.0068585 -8.75327e-20)
(5.04156 0.00696287 0)
(5.04281 0.00705432 1.70833e-19)
(5.04392 0.00713306 8.43705e-20)
(5.04491 0.00719975 0)
(5.04577 0.00725577 8.22964e-20)
(5.04653 0.00730288 -2.43816e-19)
(5.04719 0.00734249 0)
(5.04775 0.00737528 0)
(5.04821 0.0074013 0)
(5.04859 0.00742042 0)
(5.04888 0.00743277 -1.52492e-19)
(5.04909 0.00743895 -1.50523e-19)
(5.04923 0.00743992 0)
(5.0493 0.00743673 0)
(5.04931 0.00743016 0)
(5.04925 0.00742062 0)
(5.04913 0.00740798 0)
(5.04896 0.00739189 0)
(5.04872 0.00737213 -1.3709e-19)
(5.04843 0.007349 -1.23703e-24)
(5.04808 0.00732337 0)
(5.04769 0.00729635 0)
(5.04726 0.00726872 -1.29683e-19)
(5.04677 0.00724036 0)
(5.04624 0.00721041 1.26052e-19)
(5.04566 0.00717816 1.24252e-19)
(5.04503 0.00714393 0)
(5.04436 0.00710899 0)
(5.04365 0.00707486 -1.18924e-19)
(5.04289 0.00704261 -2.34336e-19)
(5.04209 0.00701246 0)
(5.04124 0.00698379 0)
(5.04034 0.00695582 0)
(5.03939 0.00692894 -1.10259e-19)
(5.03839 0.00690459 1.08558e-19)
(5.03733 0.00688473 0)
(5.03622 0.00687147 2.10372e-19)
(5.03503 0.00686667 1.03514e-19)
(5.03379 0.0068735 -2.0371e-19)
(5.03244 0.0068909 0)
(5.03104 0.00693124 0)
(5.02942 0.00697861 -1.93866e-19)
(5.02792 0.00707632 -9.53134e-20)
(5.02574 0.0071739 0)
(5.02437 0.00734696 0)
(5.02097 0.00759373 0)
(5.02039 0.00773931 0)
(5.01436 0.00854196 -1.74709e-19)
(5.01578 0.0081211 0)
(5.00509 0.0106383 0)
(5.0094 0.00830411 0)
(4.99281 0.0147295 0)
(4.99826 0.00855357 0)
(4.97734 0.0217168 0)
(4.97742 0.0100747 -1.53346e-19)
(4.9563 0.0335279 0)
(4.94002 0.0153319 0)
(4.92254 0.0563033 -2.89389e-19)
(4.87426 0.0335183 1.41871e-19)
(4.86322 0.109315 -1.39287e-19)
(4.76499 0.104524 1.36423e-19)
(-0.0195055 0.275528 0)
(-0.0627958 0.25118 -1.24797e-19)
(-0.100837 0.237056 0)
(-0.138843 0.233522 -6.15836e-20)
(-0.175162 0.225201 0)
(-0.211619 0.215649 0)
(-0.245969 0.20337 6.00895e-20)
(-0.279088 0.188209 0)
(-0.31034 0.170696 0)
(-0.339166 0.150739 0)
(-0.364959 0.128218 0)
(-0.387324 0.103094 0)
(-0.405593 0.0754861 -2.30782e-19)
(-0.419428 0.0452024 -1.14496e-19)
(-0.428158 0.0124384 1.13701e-19)
(-0.431302 -0.0227733 0)
(-0.42821 -0.0603081 0)
(-0.418318 -0.100048 0)
(-0.401338 -0.14163 0)
(-0.376644 -0.184846 0)
(-0.343894 -0.229246 -1.09214e-19)
(-0.302567 -0.27448 -1.08518e-19)
(-0.252574 -0.319978 1.07838e-19)
(-0.193626 -0.36527 -1.07174e-19)
(-0.125782 -0.40983 0)
(-0.0490313 -0.453088 0)
(0.0364288 -0.494518 -1.05416e-19)
(0.130216 -0.5335 0)
(0.232086 -0.569661 0)
(0.341437 -0.60243 -1.0358e-19)
(0.457599 -0.631499 -1.02876e-19)
(0.579819 -0.656446 -1.02291e-19)
(0.707391 -0.677046 0)
(0.839341 -0.693173 0)
(0.97485 -0.704593 1.00527e-19)
(1.11283 -0.71156 0)
(1.25253 -0.713943 0)
(1.39296 -0.712183 -9.87277e-20)
(1.53338 -0.706432 9.80445e-20)
(1.67298 -0.697061 -9.74056e-20)
(1.81099 -0.68453 0)
(1.94693 -0.669217 0)
(2.08042 -0.651518 -1.9082e-19)
(2.21082 -0.631906 0)
(2.33789 -0.610758 -1.88012e-19)
(2.4615 -0.588471 -2.79863e-19)
(2.58137 -0.56537 2.77676e-19)
(2.69741 -0.541752 -1.83639e-19)
(2.80957 -0.517866 0)
(2.91785 -0.493928 0)
(3.02222 -0.470121 -1.79122e-19)
(3.1227 -0.4466 -8.87993e-20)
(3.21931 -0.423495 0)
(3.31212 -0.400904 0)
(3.4012 -0.378906 -8.64842e-20)
(3.48662 -0.357567 -1.71407e-19)
(3.56846 -0.33694 0)
(3.64681 -0.317068 1.68303e-19)
(3.72177 -0.297975 -1.66737e-19)
(3.79344 -0.279677 1.65182e-19)
(3.86191 -0.262185 0)
(3.92729 -0.245503 0)
(3.98968 -0.22963 0)
(4.04919 -0.214557 0)
(4.10591 -0.200266 0)
(4.15995 -0.186741 1.55937e-19)
(4.21141 -0.173961 0)
(4.26039 -0.161905 0)
(4.30697 -0.150548 0)
(4.35127 -0.139861 2.99767e-19)
(4.39336 -0.129814 1.48396e-19)
(4.43334 -0.120382 1.46912e-19)
(4.4713 -0.111534 -2.90865e-19)
(4.50731 -0.103243 1.43963e-19)
(4.54146 -0.0954797 -1.42514e-19)
(4.57383 -0.0882165 0)
(4.6045 -0.0814253 1.39627e-19)
(4.63354 -0.07508 0)
(4.66103 -0.069156 0)
(4.68703 -0.0636262 0)
(4.71161 -0.0584679 2.67932e-19)
(4.73484 -0.0536586 -1.32573e-19)
(4.75679 -0.0491769 -1.31188e-19)
(4.77751 -0.0450047 -2.59644e-19)
(4.79707 -0.0411197 -3.85387e-19)
(4.81551 -0.0375021 -1.27114e-19)
(4.83291 -0.0341352 0)
(4.84931 -0.0309972 -2.4887e-19)