/*--------------------------------*- C++ -*----------------------------------*\
| =========                 |                                                 |
| \\      /  F ield         | OpenFOAM: The Open Source CFD Toolbox           |
|  \\    /   O peration     | Version:  2.1.x                                 |
|   \\  /    A nd           | Web:      www.OpenFOAM.org                      |
|    \\/     M anipulation  |                                                 |
\*---------------------------------------------------------------------------*/
FoamFile
{
    version     2.0;
    format      ascii;
    class       volSymmTensorField;
    location    "0.007";
    object      UPrime2Mean;
}
// * * * * * * * * * * * * * * * * * * * * * * * * * * * * * * * * * * * * * //

dimensions      [0 2 -2 0 0 0 0];

internalField   nonuniform List<symmTensor> 
12225
(
(0.118091 0.00321918 0 0.00368549 0 0)
(0.851588 -0.0159924 0 0.000792831 0 0)
(1.25708 -0.00517765 0 6.86046e-05 0 0)
(1.52485 -0.00208706 0 1.48887e-05 0 0)
(1.76018 -0.0018673 0 2.05352e-05 0 0)
(1.91366 -0.00235878 0 3.17405e-05 0 0)
(2.05845 -0.00420726 0 7.46597e-05 0 0)
(2.15773 -0.0056855 0 0.000143076 0 0)
(2.28306 -0.00674988 0 0.000227515 0 0)
(2.43517 -0.00965235 0 0.000327564 0 0)
(2.55543 -0.0110091 0 0.000453001 0 0)
(2.83259 -0.0142769 0 0.000629163 0 0)
(3.00231 -0.0268391 0 0.00103906 0 0)
(3.4432 -0.0024648 0 0.00141745 0 0)
(4.15894 -0.150172 0 0.00956919 0 0)
(4.6409 0.211945 0 0.0264435 0 0)
(8.4763 -1.27485 0 0.290437 0 0)
(11.6731 0.850748 0 0.15759 0 0)
(0.293152 0.0708603 0 0.029284 0 0)
(0.236442 -0.0377553 0 0.0236844 0 0)
(0.439056 -0.0472476 0 0.00862764 0 0)
(0.663389 -0.0448939 0 0.0039242 0 0)
(1.00708 -0.0423906 0 0.0024607 0 0)
(1.30657 -0.0361532 0 0.00173371 0 0)
(1.65898 -0.0351241 0 0.00217728 0 0)
(1.9313 -0.0327435 0 0.00194497 0 0)
(2.08432 -0.0415632 0 0.00253373 0 0)
(2.66376 -0.0478478 0 0.00346062 0 0)
(2.46746 -0.0574521 0 0.00431776 0 0)
(3.60518 -0.112085 0 0.009866 0 0)
(3.14761 -0.0681501 0 0.0114131 0 0)
(4.89236 -0.28995 0 0.0363486 0 0)
(4.76208 -0.124028 0 0.0417841 0 0)
(7.32832 -0.712666 0 0.144098 0 0)
(8.7681 -0.949892 0 0.186734 0 0)
(13.2795 -2.58532 0 0.768715 0 0)
(0.35346 0.0636896 0 0.0191627 0 0)
(0.16948 0.0119758 0 0.0301322 0 0)
(0.1814 -0.000759203 0 0.0177793 0 0)
(0.181094 -0.0115418 0 0.0131611 0 0)
(0.245319 -0.0298713 0 0.0115051 0 0)
(0.343516 -0.0372276 0 0.00949436 0 0)
(0.540562 -0.057521 0 0.0129794 0 0)
(0.688892 -0.0563728 0 0.0112459 0 0)
(0.909663 -0.0801611 0 0.0143005 0 0)
(1.19689 -0.0922809 0 0.0209055 0 0)
(1.38283 -0.126134 0 0.0303932 0 0)
(1.82293 -0.177645 0 0.0499215 0 0)
(2.08499 -0.228508 0 0.0744634 0 0)
(2.71169 -0.344359 0 0.111047 0 0)
(3.2232 -0.45583 0 0.163731 0 0)
(4.30144 -0.788789 0 0.28172 0 0)
(5.08793 -1.14808 0 0.403883 0 0)
(6.96497 -2.72297 0 1.66351 0 0)
(0.35982 0.0454953 0 0.0137735 0 0)
(0.203104 0.015175 0 0.0291468 0 0)
(0.212797 0.0230798 0 0.0206677 0 0)
(0.228478 0.0280362 0 0.0170897 0 0)
(0.229991 0.0168376 0 0.0201333 0 0)
(0.216244 0.00429405 0 0.0248208 0 0)
(0.209447 -0.0157076 0 0.0335704 0 0)
(0.217343 -0.0263329 0 0.033076 0 0)
(0.272651 -0.0547765 0 0.0414468 0 0)
(0.324426 -0.0763672 0 0.0528767 0 0)
(0.451356 -0.112709 0 0.0700295 0 0)
(0.534953 -0.143757 0 0.0948199 0 0)
(0.748012 -0.200997 0 0.126165 0 0)
(0.900697 -0.254229 0 0.166172 0 0)
(1.25449 -0.40689 0 0.266932 0 0)
(1.46911 -0.501422 0 0.333243 0 0)
(1.9328 -0.942801 0 0.695028 0 0)
(2.25359 -1.42363 0 1.29695 0 0)
(0.353797 0.0424494 0 0.0112072 0 0)
(0.184183 0.00782947 0 0.0228851 0 0)
(0.201371 0.0165535 0 0.0231488 0 0)
(0.229767 0.0247091 0 0.0231553 0 0)
(0.239449 0.0262966 0 0.0297356 0 0)
(0.237308 0.0182762 0 0.0363775 0 0)
(0.231061 0.0145479 0 0.0416532 0 0)
(0.226182 0.00302018 0 0.0537916 0 0)
(0.232069 -0.0128127 0 0.051194 0 0)
(0.23142 -0.0240544 0 0.0705832 0 0)
(0.238498 -0.0389811 0 0.0753352 0 0)
(0.269727 -0.0651817 0 0.107233 0 0)
(0.318135 -0.0929399 0 0.130171 0 0)
(0.394914 -0.162488 0 0.203454 0 0)
(0.487031 -0.21724 0 0.251116 0 0)
(0.616111 -0.370727 0 0.451634 0 0)
(0.775913 -0.57678 0 0.7243 0 0)
(0.88331 -0.867263 0 1.34914 0 0)
(0.339107 0.0287689 0 0.00831338 0 0)
(0.167897 0.00181814 0 0.0196239 0 0)
(0.181584 0.00790933 0 0.0231943 0 0)
(0.201701 0.0209275 0 0.0189542 0 0)
(0.218364 0.0215175 0 0.0208233 0 0)
(0.218388 0.0199428 0 0.0249938 0 0)
(0.211533 0.0185495 0 0.0339391 0 0)
(0.214441 0.00800529 0 0.034072 0 0)
(0.212618 0.00252201 0 0.045204 0 0)
(0.207312 -0.00583877 0 0.0533143 0 0)
(0.209946 -0.0165278 0 0.0719614 0 0)
(0.223155 -0.0313089 0 0.095167 0 0)
(0.244737 -0.060456 0 0.136394 0 0)
(0.273472 -0.0941542 0 0.184681 0 0)
(0.328285 -0.163879 0 0.290081 0 0)
(0.403584 -0.27336 0 0.455304 0 0)
(0.492256 -0.429283 0 0.729596 0 0)
(0.569126 -0.615346 0 1.35891 0 0)
(0.339955 0.0270193 0 0.00733656 0 0)
(0.165813 0.00116533 0 0.0139374 0 0)
(0.171429 0.00430481 0 0.0184283 0 0)
(0.18004 0.0137412 0 0.0199579 0 0)
(0.18757 0.0170271 0 0.0218258 0 0)
(0.186238 0.0131257 0 0.0264315 0 0)
(0.185215 0.0103323 0 0.0296985 0 0)
(0.187196 0.00919559 0 0.0391136 0 0)
(0.18693 0.00014918 0 0.041403 0 0)
(0.186299 -0.00536347 0 0.0563079 0 0)
(0.191827 -0.0127453 0 0.0651041 0 0)
(0.20351 -0.0278845 0 0.0889619 0 0)
(0.225993 -0.0530692 0 0.117377 0 0)
(0.250155 -0.0898277 0 0.180378 0 0)
(0.293769 -0.146656 0 0.260736 0 0)
(0.338429 -0.222296 0 0.417544 0 0)
(0.385376 -0.323321 0 0.699475 0 0)
(0.409466 -0.424515 0 1.20994 0 0)
(0.363511 0.0259234 0 0.00779909 0 0)
(0.171271 -0.00116216 0 0.0125595 0 0)
(0.175476 0.00321296 0 0.0183225 0 0)
(0.183036 0.0113467 0 0.0182124 0 0)
(0.192045 0.0111085 0 0.017456 0 0)
(0.189634 0.00901176 0 0.0201111 0 0)
(0.18591 0.00773141 0 0.0238117 0 0)
(0.186977 0.00248037 0 0.0272409 0 0)
(0.191195 -0.0058873 0 0.0353005 0 0)
(0.192219 -0.0124363 0 0.0473648 0 0)
(0.196638 -0.0238701 0 0.0610151 0 0)
(0.207152 -0.0380267 0 0.0846343 0 0)
(0.226127 -0.0627383 0 0.119043 0 0)
(0.243712 -0.0950313 0 0.17671 0 0)
(0.272561 -0.141774 0 0.266542 0 0)
(0.295497 -0.196695 0 0.423364 0 0)
(0.320044 -0.26553 0 0.648752 0 0)
(0.34331 -0.317421 0 1.02627 0 0)
(0.322911 0.0178794 0 0.00747823 0 0)
(0.166498 -0.00366084 0 0.011896 0 0)
(0.171408 -0.00201845 0 0.0157763 0 0)
(0.172136 0.00448957 0 0.0189934 0 0)
(0.176218 0.00688445 0 0.0189932 0 0)
(0.17445 0.00441878 0 0.0205263 0 0)
(0.172964 0.00174363 0 0.0241497 0 0)
(0.174818 -0.001255 0 0.0304969 0 0)
(0.180303 -0.00968983 0 0.0380616 0 0)
(0.184138 -0.0188818 0 0.0518071 0 0)
(0.192828 -0.0315699 0 0.0692092 0 0)
(0.20139 -0.0466472 0 0.0944142 0 0)
(0.218269 -0.0725399 0 0.131386 0 0)
(0.232225 -0.102166 0 0.195189 0 0)
(0.252192 -0.143081 0 0.286122 0 0)
(0.265007 -0.184982 0 0.42268 0 0)
(0.286982 -0.230091 0 0.621213 0 0)
(0.321454 -0.250135 0 0.943861 0 0)
(0.337593 0.0181614 0 0.00668065 0 0)
(0.168139 -0.00493817 0 0.00980808 0 0)
(0.170738 -0.00432202 0 0.0146188 0 0)
(0.169435 0.00134251 0 0.0172917 0 0)
(0.172092 0.00341396 0 0.0181033 0 0)
(0.16987 0.000563563 0 0.0205972 0 0)
(0.167879 -0.00281313 0 0.0245807 0 0)
(0.167893 -0.00649775 0 0.03048 0 0)
(0.172535 -0.0129046 0 0.0388162 0 0)
(0.177099 -0.0210014 0 0.0548862 0 0)
(0.186181 -0.0343458 0 0.0745207 0 0)
(0.196387 -0.0497839 0 0.103684 0 0)
(0.210243 -0.0705023 0 0.143901 0 0)
(0.2177 -0.0938743 0 0.206909 0 0)
(0.227976 -0.125243 0 0.293622 0 0)
(0.235583 -0.154766 0 0.427133 0 0)
(0.244453 -0.18302 0 0.60433 0 0)
(0.264772 -0.194043 0 0.873551 0 0)
(0.353841 0.0122993 0 0.00854944 0 0)
(0.175129 -0.00445522 0 0.00835289 0 0)
(0.179736 -0.00255392 0 0.0112454 0 0)
(0.177094 0.00400738 0 0.0146454 0 0)
(0.175437 0.00618329 0 0.0174179 0 0)
(0.173717 0.00527696 0 0.0205051 0 0)
(0.172749 0.0026383 0 0.0245341 0 0)
(0.174077 -0.000206302 0 0.0321191 0 0)
(0.176841 -0.00562218 0 0.0423012 0 0)
(0.179236 -0.0125215 0 0.0584336 0 0)
(0.183647 -0.0232852 0 0.0795817 0 0)
(0.187924 -0.0347263 0 0.111736 0 0)
(0.194162 -0.0510044 0 0.153613 0 0)
(0.198917 -0.0672322 0 0.217635 0 0)
(0.205844 -0.0854017 0 0.30081 0 0)
(0.206559 -0.0970861 0 0.416875 0 0)
(0.20771 -0.106368 0 0.565755 0 0)
(0.230047 -0.104244 0 0.794927 0 0)
(0.357111 0.0158936 0 0.00684691 0 0)
(0.163185 -0.00554238 0 0.00815909 0 0)
(0.162716 -0.00470704 0 0.0110636 0 0)
(0.159686 -0.000299662 0 0.0146078 0 0)
(0.160657 0.000606307 0 0.0178719 0 0)
(0.160759 -0.000719621 0 0.0219269 0 0)
(0.160611 -0.00338456 0 0.0269508 0 0)
(0.162861 -0.00591598 0 0.0352354 0 0)
(0.166512 -0.0111853 0 0.0463689 0 0)
(0.169002 -0.017625 0 0.0639999 0 0)
(0.172711 -0.0275214 0 0.0875932 0 0)
(0.175913 -0.0369901 0 0.121356 0 0)
(0.181298 -0.0484619 0 0.163068 0 0)
(0.18325 -0.0575642 0 0.221926 0 0)
(0.184739 -0.0679891 0 0.296195 0 0)
(0.185158 -0.0714256 0 0.397604 0 0)
(0.187784 -0.0709918 0 0.524222 0 0)
(0.20068 -0.0585649 0 0.720408 0 0)
(0.338503 0.0147024 0 0.010798 0 0)
(0.163553 -0.00633419 0 0.0120705 0 0)
(0.163764 -0.00460782 0 0.0136731 0 0)
(0.158685 0.000843452 0 0.0169346 0 0)
(0.157764 0.00200988 0 0.0211016 0 0)
(0.157816 7.32021e-05 0 0.0265916 0 0)
(0.158251 -0.00295697 0 0.0324964 0 0)
(0.159357 -0.00601861 0 0.0407007 0 0)
(0.161229 -0.0104403 0 0.0513236 0 0)
(0.162981 -0.0154198 0 0.0679837 0 0)
(0.165894 -0.0230092 0 0.090636 0 0)
(0.167998 -0.0304008 0 0.124113 0 0)
(0.170235 -0.0382303 0 0.165693 0 0)
(0.170762 -0.0417485 0 0.22192 0 0)
(0.17166 -0.042348 0 0.288745 0 0)
(0.171896 -0.0351064 0 0.374312 0 0)
(0.173226 -0.0232399 0 0.47844 0 0)
(0.186432 0.00279624 0 0.651869 0 0)
(0.373198 0.0201886 0 0.0126488 0 0)
(0.169435 -0.00357898 0 0.0118497 0 0)
(0.16215 -0.00275717 0 0.012802 0 0)
(0.154691 0.0011179 0 0.0160213 0 0)
(0.156606 0.00194528 0 0.0207351 0 0)
(0.161778 0.000673618 0 0.0268385 0 0)
(0.165675 -0.00118559 0 0.034371 0 0)
(0.167584 -0.00237065 0 0.0445091 0 0)
(0.167344 -0.00461119 0 0.0571717 0 0)
(0.165502 -0.0071147 0 0.0745439 0 0)
(0.163629 -0.0111788 0 0.0967813 0 0)
(0.163053 -0.013613 0 0.127443 0 0)
(0.165168 -0.0152406 0 0.164682 0 0)
(0.166507 -0.01164 0 0.211737 0 0)
(0.166971 -0.0049106 0 0.26562 0 0)
(0.168912 0.0102709 0 0.33169 0 0)
(0.173771 0.0314066 0 0.409083 0 0)
(0.19386 0.0637023 0 0.546091 0 0)
(0.331048 0.0191794 0 0.0102214 0 0)
(0.171736 -0.00801691 0 0.0106013 0 0)
(0.170859 -0.00839443 0 0.0119192 0 0)
(0.160842 -0.00295389 0 0.0152361 0 0)
(0.155536 -0.000626979 0 0.0200643 0 0)
(0.154303 -0.0010677 0 0.0262887 0 0)
(0.156305 -0.00264856 0 0.0339102 0 0)
(0.158815 -0.00320897 0 0.0436942 0 0)
(0.160661 -0.00336893 0 0.0557262 0 0)
(0.161053 -0.00169089 0 0.0716595 0 0)
(0.161159 -0.000317566 0 0.0917708 0 0)
(0.161704 0.0031753 0 0.118188 0 0)
(0.162902 0.00667013 0 0.149134 0 0)
(0.165243 0.0144922 0 0.187497 0 0)
(0.168536 0.0249051 0 0.230111 0 0)
(0.174914 0.0429659 0 0.281571 0 0)
(0.183942 0.0650638 0 0.347873 0 0)
(0.203074 0.103032 0 0.500245 0 0)
(0.304355 0.009772 0 0.0150448 0 0)
(0.172566 -0.00417352 0 0.0153657 0 0)
(0.175941 -0.00708221 0 0.0128714 0 0)
(0.165451 -0.00450628 0 0.0141819 0 0)
(0.158651 -0.00274928 0 0.0185411 0 0)
(0.154263 -0.0031006 0 0.0246397 0 0)
(0.153552 -0.00452435 0 0.0318638 0 0)
(0.155037 -0.00490439 0 0.0409681 0 0)
(0.158694 -0.00445561 0 0.0520801 0 0)
(0.161901 -0.00190026 0 0.066637 0 0)
(0.163811 0.00126087 0 0.0840745 0 0)
(0.164221 0.00669934 0 0.105996 0 0)
(0.164096 0.0129313 0 0.130819 0 0)
(0.165523 0.0225203 0 0.160331 0 0)
(0.168968 0.0337343 0 0.190964 0 0)
(0.176906 0.05018 0 0.226138 0 0)
(0.188044 0.070876 0 0.269389 0 0)
(0.207428 0.102472 0 0.358396 0 0)
(0.363592 0.00541619 0 0.0137108 0 0)
(0.17369 -0.00206018 0 0.0129908 0 0)
(0.169735 -0.000575441 0 0.0116495 0 0)
(0.164354 0.00243885 0 0.0140996 0 0)
(0.16291 0.00371891 0 0.0184716 0 0)
(0.160791 0.00404925 0 0.0234266 0 0)
(0.159464 0.00510796 0 0.0293877 0 0)
(0.159905 0.0078015 0 0.0372452 0 0)
(0.162319 0.0119799 0 0.0472267 0 0)
(0.166327 0.0174449 0 0.0596087 0 0)
(0.170599 0.0235185 0 0.0740606 0 0)
(0.174517 0.0311672 0 0.0912204 0 0)
(0.178297 0.0398677 0 0.109665 0 0)
(0.183524 0.0510363 0 0.130345 0 0)
(0.191092 0.0638268 0 0.151079 0 0)
(0.202206 0.0794633 0 0.174317 0 0)
(0.216262 0.0963491 0 0.201434 0 0)
(0.236102 0.116378 0 0.246227 0 0)
(0.357483 0.0191543 0 0.0123182 0 0)
(0.171105 -0.00102388 0 0.0187955 0 0)
(0.16263 -0.00132966 0 0.0201999 0 0)
(0.158229 0.00256686 0 0.0203953 0 0)
(0.159826 0.00452975 0 0.0223549 0 0)
(0.160992 0.0039356 0 0.0254871 0 0)
(0.160866 0.00363267 0 0.0296943 0 0)
(0.160636 0.005233 0 0.0354749 0 0)
(0.1616 0.00905059 0 0.0428144 0 0)
(0.16419 0.0145046 0 0.0517628 0 0)
(0.168935 0.0210312 0 0.062125 0 0)
(0.175681 0.0289734 0 0.0743753 0 0)
(0.18423 0.038367 0 0.0872961 0 0)
(0.195044 0.0498032 0 0.101438 0 0)
(0.207143 0.0623882 0 0.11489 0 0)
(0.221263 0.0762916 0 0.12831 0 0)
(0.236778 0.0902986 0 0.138983 0 0)
(0.255272 0.10592 0 0.157468 0 0)
(0.370035 0.0199085 0 0.013507 0 0)
(0.173292 -0.000502537 0 0.0123021 0 0)
(0.165731 -0.00308638 0 0.0117738 0 0)
(0.166302 0.00123932 0 0.0127774 0 0)
(0.171248 0.00442163 0 0.0150612 0 0)
(0.174039 0.00533572 0 0.018114 0 0)
(0.174517 0.00623614 0 0.0218407 0 0)
(0.174502 0.00839037 0 0.0259528 0 0)
(0.17506 0.0121428 0 0.0304824 0 0)
(0.178189 0.0173821 0 0.0358433 0 0)
(0.184441 0.0239908 0 0.0419836 0 0)
(0.193515 0.0318897 0 0.0492674 0 0)
(0.204854 0.0409977 0 0.0567465 0 0)
(0.218134 0.0516094 0 0.0649516 0 0)
(0.232773 0.0630389 0 0.0727077 0 0)
(0.249813 0.0756483 0 0.0808721 0 0)
(0.268511 0.0885036 0 0.0892357 0 0)
(0.290759 0.101295 0 0.0983517 0 0)
(0.342243 0.012856 0 0.0145765 0 0)
(0.165354 -0.00598928 0 0.0118939 0 0)
(0.16748 -0.00653563 0 0.00965475 0 0)
(0.161467 -0.00195456 0 0.00911209 0 0)
(0.159699 0.00154955 0 0.00973873 0 0)
(0.160854 0.00322691 0 0.0111515 0 0)
(0.165531 0.00450827 0 0.0131778 0 0)
(0.173027 0.00672352 0 0.0154913 0 0)
(0.181677 0.0103402 0 0.0182973 0 0)
(0.189729 0.0151062 0 0.0216836 0 0)
(0.196885 0.0205672 0 0.025501 0 0)
(0.204529 0.0265314 0 0.029802 0 0)
(0.214417 0.033076 0 0.0342069 0 0)
(0.227741 0.0405304 0 0.0390633 0 0)
(0.2445 0.048877 0 0.0438665 0 0)
(0.264447 0.0583273 0 0.0490172 0 0)
(0.286329 0.0682715 0 0.0535573 0 0)
(0.310251 0.0791018 0 0.0582934 0 0)
(0.313929 0.00538544 0 0.0107402 0 0)
(0.164681 -0.00145296 0 0.00690559 0 0)
(0.167037 -0.00294581 0 0.00436269 0 0)
(0.161335 -0.00285599 0 0.00376036 0 0)
(0.16029 -0.00148426 0 0.00433408 0 0)
(0.162689 0.000481527 0 0.00550292 0 0)
(0.168805 0.00297892 0 0.00706644 0 0)
(0.177513 0.00609274 0 0.00900525 0 0)
(0.187732 0.00995741 0 0.0112306 0 0)
(0.197656 0.0141424 0 0.0136649 0 0)
(0.207611 0.0187416 0 0.0160244 0 0)
(0.218664 0.023731 0 0.0183751 0 0)
(0.232123 0.0293174 0 0.0204801 0 0)
(0.248543 0.0355085 0 0.0227167 0 0)
(0.267736 0.0421398 0 0.0249031 0 0)
(0.289015 0.0492951 0 0.0274886 0 0)
(0.311661 0.0566894 0 0.0300129 0 0)
(0.335684 0.0644956 0 0.0327425 0 0)
(0.36111 -0.000600643 0 0.00949447 0 0)
(0.163215 -0.00127444 0 0.00590243 0 0)
(0.161548 -0.00377862 0 0.00334782 0 0)
(0.162537 -0.00513849 0 0.00264755 0 0)
(0.169038 -0.00409667 0 0.00247703 0 0)
(0.176506 -0.00193161 0 0.00266649 0 0)
(0.18482 0.00100635 0 0.00327922 0 0)
(0.194146 0.00417882 0 0.00412229 0 0)
(0.205459 0.00765111 0 0.00502206 0 0)
(0.218159 0.011256 0 0.00600707 0 0)
(0.23266 0.0153655 0 0.00716017 0 0)
(0.248022 0.0199793 0 0.00851271 0 0)
(0.265072 0.0251105 0 0.00996357 0 0)
(0.283327 0.0305614 0 0.0115791 0 0)
(0.30372 0.0362251 0 0.0131855 0 0)
(0.325319 0.0419923 0 0.0149055 0 0)
(0.348871 0.0477376 0 0.0164187 0 0)
(0.373347 0.0534465 0 0.0178364 0 0)
(0.380773 -0.000515582 0 0.0132435 0 0)
(0.167989 -0.0045737 0 0.00867346 0 0)
(0.164827 -0.00645222 0 0.00393258 0 0)
(0.177159 -0.00901055 0 0.00248816 0 0)
(0.195581 -0.00879307 0 0.00213325 0 0)
(0.210243 -0.00679528 0 0.00212976 0 0)
(0.220928 -0.00392387 0 0.00236711 0 0)
(0.230513 -0.00104758 0 0.00267232 0 0)
(0.243134 0.00197799 0 0.00301629 0 0)
(0.259965 0.00511213 0 0.0033917 0 0)
(0.28105 0.00874884 0 0.00389168 0 0)
(0.303994 0.0126934 0 0.00456214 0 0)
(0.328708 0.017069 0 0.00529901 0 0)
(0.354266 0.021601 0 0.00609459 0 0)
(0.382099 0.026365 0 0.0068017 0 0)
(0.411739 0.0312247 0 0.00751023 0 0)
(0.443975 0.0359692 0 0.008109 0 0)
(0.477018 0.0407033 0 0.00871391 0 0)
(0.352258 -0.00342784 0 0.00784089 0 0)
(0.164337 -0.00564268 0 0.00624517 0 0)
(0.161817 -0.00680463 0 0.00529734 0 0)
(0.173572 -0.0105859 0 0.00424079 0 0)
(0.192631 -0.0116846 0 0.00305998 0 0)
(0.209457 -0.0109207 0 0.00211913 0 0)
(0.223339 -0.00955375 0 0.00174839 0 0)
(0.235968 -0.00798714 0 0.00177267 0 0)
(0.250782 -0.00589041 0 0.00187933 0 0)
(0.268707 -0.00355193 0 0.00194949 0 0)
(0.290166 -0.000973863 0 0.00193532 0 0)
(0.314104 0.00163216 0 0.00195023 0 0)
(0.340383 0.00445501 0 0.00210516 0 0)
(0.368254 0.00755265 0 0.00240501 0 0)
(0.397784 0.0108095 0 0.00280391 0 0)
(0.428039 0.0142469 0 0.00322015 0 0)
(0.459283 0.0174927 0 0.00357838 0 0)
(0.490116 0.0206047 0 0.00386331 0 0)
(0.35474 -0.00472438 0 0.00767571 0 0)
(0.162764 -0.00186713 0 0.00640176 0 0)
(0.16663 -0.00739272 0 0.00689133 0 0)
(0.18907 -0.0150051 0 0.00638574 0 0)
(0.215985 -0.0169758 0 0.00488051 0 0)
(0.237259 -0.0159438 0 0.00352355 0 0)
(0.254309 -0.0146385 0 0.00264843 0 0)
(0.271069 -0.0135101 0 0.00214058 0 0)
(0.290966 -0.012244 0 0.00186693 0 0)
(0.314277 -0.010852 0 0.00173213 0 0)
(0.340877 -0.00921817 0 0.0016643 0 0)
(0.369316 -0.00744488 0 0.00156605 0 0)
(0.4 -0.00552786 0 0.00148476 0 0)
(0.431944 -0.00354676 0 0.00143141 0 0)
(0.466038 -0.00157584 0 0.00150421 0 0)
(0.501095 0.000425228 0 0.00166257 0 0)
(0.537629 0.00228931 0 0.00188984 0 0)
(0.573961 0.00424443 0 0.00211187 0 0)
(0.312989 -0.0171581 0 0.00917858 0 0)
(0.162665 -0.00342883 0 0.0125676 0 0)
(0.17344 -0.0105584 0 0.0138202 0 0)
(0.201882 -0.0209957 0 0.0116088 0 0)
(0.233541 -0.0249556 0 0.00865185 0 0)
(0.257005 -0.0259877 0 0.00716734 0 0)
(0.275551 -0.0259835 0 0.00667985 0 0)
(0.293889 -0.0248432 0 0.00638096 0 0)
(0.31482 -0.0230592 0 0.00574841 0 0)
(0.338605 -0.0214578 0 0.00489113 0 0)
(0.364265 -0.0201512 0 0.00400293 0 0)
(0.391038 -0.0191553 0 0.00328844 0 0)
(0.418613 -0.0182242 0 0.00287257 0 0)
(0.447361 -0.0173607 0 0.00277967 0 0)
(0.477201 -0.0165416 0 0.00290326 0 0)
(0.508454 -0.0159747 0 0.0030786 0 0)
(0.540304 -0.015477 0 0.00323224 0 0)
(0.572788 -0.0150655 0 0.00325013 0 0)
(0.361289 -0.028194 0 0.00667316 0 0)
(0.164797 -0.0117932 0 0.0151397 0 0)
(0.185828 -0.0252273 0 0.018624 0 0)
(0.239054 -0.0380317 0 0.0158318 0 0)
(0.282336 -0.0423491 0 0.013541 0 0)
(0.301898 -0.0422943 0 0.0123383 0 0)
(0.308468 -0.0396662 0 0.0114602 0 0)
(0.309891 -0.0350044 0 0.0103254 0 0)
(0.311794 -0.0304339 0 0.00894189 0 0)
(0.313832 -0.0267681 0 0.00755854 0 0)
(0.317158 -0.024351 0 0.0063823 0 0)
(0.319427 -0.0225336 0 0.00559033 0 0)
(0.322401 -0.0210581 0 0.00516647 0 0)
(0.324478 -0.0196235 0 0.00508199 0 0)
(0.327823 -0.0184199 0 0.00513324 0 0)
(0.330587 -0.0174642 0 0.005322 0 0)
(0.334575 -0.0166896 0 0.00544621 0 0)
(0.337526 -0.0160225 0 0.00556758 0 0)
(0.329491 -0.0310484 0 0.00995581 0 0)
(0.166589 -0.0121504 0 0.0255628 0 0)
(0.185616 -0.0220363 0 0.0251712 0 0)
(0.203852 -0.0263912 0 0.0187864 0 0)
(0.192258 -0.0204039 0 0.0162291 0 0)
(0.170254 -0.010264 0 0.0151677 0 0)
(0.156898 -0.000146048 0 0.0138072 0 0)
(0.155555 0.00791351 0 0.0118234 0 0)
(0.162646 0.0127901 0 0.00963068 0 0)
(0.175848 0.0158044 0 0.0077499 0 0)
(0.191653 0.0173878 0 0.0062171 0 0)
(0.209998 0.0188557 0 0.00532242 0 0)
(0.229434 0.0201202 0 0.00482176 0 0)
(0.249794 0.0214536 0 0.00464296 0 0)
(0.270422 0.0226971 0 0.00458772 0 0)
(0.29125 0.0240832 0 0.00464084 0 0)
(0.310502 0.0257091 0 0.00477818 0 0)
(0.330219 0.0278295 0 0.00498817 0 0)
(0.341751 -0.0624164 0 0.0212486 0 0)
(0.160292 0.00847581 0 0.0387668 0 0)
(0.199734 0.0303217 0 0.028174 0 0)
(0.254775 0.0418883 0 0.0173822 0 0)
(0.381431 0.0516801 0 0.0113592 0 0)
(0.572536 0.0523303 0 0.0076141 0 0)
(0.784961 0.0455199 0 0.00498222 0 0)
(0.985651 0.0365994 0 0.0031421 0 0)
(1.1606 0.0295254 0 0.00196362 0 0)
(1.3115 0.0249208 0 0.00131986 0 0)
(1.43942 0.022602 0 0.000942678 0 0)
(1.54921 0.0219939 0 0.000822138 0 0)
(1.64996 0.0218289 0 0.000743981 0 0)
(1.73004 0.02294 0 0.000791643 0 0)
(1.81854 0.0240682 0 0.000836885 0 0)
(1.87861 0.0257547 0 0.000906203 0 0)
(1.96109 0.0307103 0 0.00111296 0 0)
(2.01296 0.0332534 0 0.00119485 0 0)
(0.182211 -0.0110659 0 0.00625245 0 0)
(0.61792 0.0333059 0 0.00343171 0 0)
(1.11917 0.0191601 0 0.000764798 0 0)
(1.51888 0.00497038 0 9.7142e-05 0 0)
(1.88111 -0.00332341 0 4.13245e-05 0 0)
(2.14396 -0.00808999 0 6.10576e-05 0 0)
(2.30764 -0.00838538 0 5.0609e-05 0 0)
(2.40675 -0.00596211 0 3.82722e-05 0 0)
(2.47395 -0.00280682 0 3.77335e-05 0 0)
(2.52623 2.50175e-05 0 4.43444e-05 0 0)
(2.57186 0.00227623 0 5.41532e-05 0 0)
(2.6132 0.00386789 0 6.79854e-05 0 0)
(2.65456 0.00498927 0 8.09152e-05 0 0)
(2.68947 0.0061112 0 0.000103295 0 0)
(2.73846 0.00636749 0 0.000101118 0 0)
(2.75685 0.00876007 0 0.000160554 0 0)
(2.8424 0.0094861 0 0.000131904 0 0)
(2.8231 0.0123104 0 0.000260769 0 0)
(0.00146735 -0.00322561 0 0.00711461 0 0)
(0.0147601 -0.0108194 0 0.00794658 0 0)
(0.0424199 -0.0183193 0 0.00791741 0 0)
(0.0851172 -0.0258731 0 0.00786883 0 0)
(0.142655 -0.0333146 0 0.007784 0 0)
(0.215442 -0.0406522 0 0.00767556 0 0)
(0.303156 -0.0478191 2.70456e-20 0.00754975 -4.14661e-21 1.42254e-36)
(0.405936 -0.0547913 -3.08484e-20 0.0074063 4.02374e-21 1.40117e-36)
(0.523478 -0.061546 0 0.00725394 0 0)
(0.655495 -0.0680452 -3.80734e-20 0.00709277 3.75262e-21 1.35905e-36)
(0.801305 -0.0742115 0 0.00691849 0 0)
(0.960359 -0.0799666 0 0.00672671 0 0)
(1.13196 -0.085244 0 0.00651765 0 0)
(1.31481 -0.0899255 5.06566e-20 0.00628525 -3.11195e-21 1.27725e-36)
(1.50755 -0.0938808 0 0.00602403 0 0)
(1.70833 -0.0969876 0 0.00573112 0 0)
(1.91534 -0.0991016 -5.81012e-20 0.00540384 2.54953e-21 1.21801e-36)
(2.12608 -0.100119 0 0.00504094 0 0)
(2.33811 -0.0998643 0 0.00464126 0 0)
(2.54838 -0.0983102 0 0.00421158 0 0)
(2.75363 -0.0952883 6.4834e-20 0.003753 -1.72224e-21 1.14183e-36)
(2.95043 -0.0908599 0 0.00327935 0 0)
(3.13545 -0.0849396 6.66977e-20 0.00279455 -1.29849e-21 1.10493e-36)
(3.30548 -0.0776392 0 0.00232067 0 0)
(3.457 -0.069058 0 0.00186552 0 0)
(3.5871 -0.0593782 6.75816e-20 0.00144454 -6.88438e-22 1.0511e-36)
(3.69297 -0.0487867 0 0.00107002 0 0)
(3.77257 -0.0375137 -6.69475e-20 0.000755254 3.2345e-22 1.0162e-36)
(3.82422 -0.0259019 0 0.000508123 0 0)
(3.84716 -0.014209 6.54346e-20 0.000332436 -9.09376e-24 9.82116e-37)
(3.84141 -0.00280256 0 0.000229943 0 0)
(3.80761 0.00804547 0 0.000195783 0 0)
(3.74726 0.0180178 0 0.000222386 0 0)
(3.66251 0.0268976 0 0.000298026 0 0)
(3.55608 0.0344651 0 0.000408463 0 0)
(3.43098 0.0406084 -5.70821e-20 0.000538367 -5.4491e-22 8.84661e-37)
(3.29064 0.0452732 0 0.000672939 0 0)
(3.1387 0.0484614 1.07194e-19 0.000798529 1.19015e-21 3.4151e-36)
(2.97829 0.0502181 0 0.00090361 0 0)
(2.81323 0.0507881 -1.00083e-19 0.000985832 -1.18028e-21 3.29473e-36)
(2.64692 0.0501348 0 0.00103352 0 0)
(2.48138 0.0484849 0 0.00104761 0 0)
(2.31915 0.0461081 8.97435e-20 0.00103396 1.00521e-21 3.1201e-36)
(2.16253 0.0430894 0 0.000991657 0 0)
(2.01286 0.0396162 8.3354e-20 0.000926143 8.20781e-22 3.0076e-36)
(1.87133 0.0359682 -8.03579e-20 0.000849326 -7.18614e-22 2.95251e-36)
(1.73892 0.0321475 0 0.000760127 0 0)
(1.61608 0.0283532 -7.48231e-20 0.000668577 -5.06068e-22 2.84463e-36)
(1.50288 0.0246083 -7.2292e-20 0.000575522 -3.9902e-22 2.79184e-36)
(1.39923 0.0210013 0 0.00048548 0 0)
(1.30499 0.0175931 0 0.00040194 0 0)
(1.21986 0.0144149 0 0.00032695 0 0)
(1.14345 0.0114868 0 0.000261605 0 0)
(1.07528 0.00882439 0 0.000206387 0 0)
(1.01484 0.00643105 6.03809e-20 0.000161265 -1.56816e-22 2.49081e-36)
(0.961589 0.00429686 0 0.000125755 0 0)
(0.914945 0.00240697 -5.75636e-20 9.89884e-05 2.90565e-22 2.39632e-36)
(0.874377 0.000748933 0 7.98409e-05 0 0)
(0.839374 -0.000689375 0 6.7111e-05 0 0)
(0.809433 -0.00192495 5.42367e-20 5.96416e-05 -4.38742e-22 2.25991e-36)
(0.784067 -0.00297903 0 5.63107e-05 0 0)
(0.762829 -0.00387066 -5.25287e-20 5.60077e-05 5.03441e-22 2.17245e-36)
(0.745317 -0.00461422 0 5.76938e-05 0 0)
(0.731162 -0.00522314 0 6.0509e-05 0 0)
(0.72001 -0.00571309 0 6.38211e-05 0 0)
(0.711536 -0.00610105 5.00578e-20 6.71497e-05 -5.66204e-22 2.00564e-36)
(0.705449 -0.00639895 0 7.00932e-05 0 0)
(0.701494 -0.00661623 0 7.23501e-05 0 0)
(0.69944 -0.00676149 4.88127e-20 7.37533e-05 -5.68458e-22 1.88739e-36)
(0.69906 -0.00684471 0 7.42837e-05 0 0)
(0.700156 -0.00687677 4.81813e-20 7.39825e-05 -5.55227e-22 1.81173e-36)
(0.702546 -0.0068607 0 7.2838e-05 0 0)
(0.70607 -0.00680145 0 7.08925e-05 0 0)
(0.710594 -0.00670596 0 6.82433e-05 0 0)
(0.715972 -0.00657013 -4.72226e-20 6.49145e-05 5.04574e-22 1.66774e-36)
(0.722076 -0.00639349 0 6.10191e-05 0 0)
(0.728802 -0.00619407 0 5.69099e-05 0 0)
(0.736051 -0.00598998 -4.66568e-20 5.28903e-05 4.5321e-22 1.56593e-36)
(0.743732 -0.00578668 -4.64827e-20 4.90566e-05 4.36155e-22 1.53313e-36)
(0.751766 -0.00558399 0 4.54165e-05 0 0)
(0.760091 -0.00538204 -4.61445e-20 4.19713e-05 4.02991e-22 1.4692e-36)
(0.768656 -0.00518053 0 3.87074e-05 0 0)
(0.77741 -0.00497934 -9.16194e-20 3.56263e-05 7.43229e-22 5.62973e-36)
(0.786309 -0.00478201 0 3.2767e-05 0 0)
(0.7953 -0.00458822 -9.09418e-20 3.0141e-05 6.84066e-22 5.39113e-36)
(0.804349 -0.00439899 0 2.7753e-05 0 0)
(0.813444 -0.00421976 9.02453e-20 2.56123e-05 -6.29916e-22 5.16075e-36)
(0.822573 -0.00405306 0 2.36925e-05 0 0)
(0.831707 -0.00389261 0 2.19308e-05 0 0)
(0.840809 -0.00373543 0 2.03102e-05 0 0)
(0.849848 -0.00358244 -8.87644e-20 1.88316e-05 5.37061e-22 4.72375e-36)
(0.858815 -0.00343452 0 1.7486e-05 0 0)
(0.867707 -0.00329175 8.79711e-20 1.62548e-05 -4.95829e-22 4.51667e-36)
(0.876517 -0.00315407 0 1.513e-05 0 0)
(0.885229 -0.00302098 -8.71395e-20 1.4107e-05 4.58233e-22 4.31693e-36)
(0.893828 -0.00289237 -8.67093e-20 1.31778e-05 4.40602e-22 4.21973e-36)
(0.902311 -0.00276822 -8.62697e-20 1.2329e-05 4.23787e-22 4.1243e-36)
(0.910684 -0.00264779 0 1.15466e-05 0 0)
(0.918949 -0.00253046 0 1.08248e-05 0 0)
(0.927097 -0.00241694 0 1.0167e-05 0 0)
(0.935117 -0.00230848 0 9.57666e-06 0 0)
(0.943003 -0.00220573 0 9.04936e-06 0 0)
(0.950763 -0.00210821 0 8.5716e-06 0 0)
(0.958408 -0.00201457 0 8.12963e-06 0 0)
(0.965939 -0.00192356 0 7.71877e-06 0 0)
(0.973351 -0.00183528 8.19185e-20 7.34335e-06 -3.04026e-22 3.33997e-36)
(0.980634 -0.00175095 8.13957e-20 7.00734e-06 -2.93574e-22 3.26066e-36)
(0.987792 -0.00167151 0 6.70706e-06 0 0)
(0.994833 -0.00159648 0 6.43304e-06 0 0)
(1.00177 -0.0015242 0 6.17694e-06 0 0)
(1.0086 -0.00145343 7.92384e-20 5.93733e-06 -2.56239e-22 2.958e-36)
(1.01532 -0.00138434 0 5.71733e-06 0 0)
(1.02194 -0.00131805 0 5.51866e-06 0 0)
(1.02844 -0.00125539 0 5.33881e-06 0 0)
(1.03484 -0.00119606 0 5.1732e-06 0 0)
(1.04114 -0.00113899 -7.64095e-20 5.01872e-06 2.17827e-22 2.61079e-36)
(1.04735 -0.0010832 0 4.87476e-06 0 0)
(1.05346 -0.00102857 0 4.74196e-06 0 0)
(1.05948 -0.000975511 7.46522e-20 4.61979e-06 -1.98228e-22 2.41803e-36)
(1.0654 -0.000924508 -7.40575e-20 4.50677e-06 1.92234e-22 2.35625e-36)
(1.07123 -0.000875697 0 4.40164e-06 0 0)
(1.07698 -0.000828875 -7.28558e-20 4.30401e-06 1.80918e-22 2.23627e-36)
(1.08263 -0.000783749 0 4.21375e-06 0 0)
(1.08821 -0.000739961 7.16393e-20 4.12998e-06 -1.70217e-22 2.12096e-36)
(1.0937 -0.00069717 0 4.05161e-06 0 0)
(1.09911 -0.000655193 0 3.97803e-06 0 0)
(1.10444 -0.000614166 0 3.90941e-06 0 0)
(1.10969 -0.000574507 0 3.84591e-06 0 0)
(1.11486 -0.000536541 0 3.787e-06 0 0)
(1.11995 -0.000500213 -1.35813e-19 3.73165e-06 2.84779e-22 7.20607e-36)
(1.12497 -0.000464973 -1.34548e-19 3.67888e-06 2.76425e-22 7.00782e-36)
(1.12991 -0.000430152 0 3.6285e-06 0 0)
(1.13479 -0.000395438 0 3.58101e-06 0 0)
(1.13959 -0.000361115 0 3.53696e-06 0 0)
(1.14431 -0.000327867 1.29431e-19 3.49613e-06 -2.45632e-22 6.25444e-36)
(1.14897 -0.000296113 0 3.45742e-06 0 0)
(1.15355 -0.000265705 0 3.41982e-06 0 0)
(1.15806 -0.000235952 0 3.38303e-06 0 0)
(1.1625 -0.000206202 1.24234e-19 3.34788e-06 -2.18278e-22 5.5614e-36)
(1.16687 -0.000176421 -1.22923e-19 3.31543e-06 2.1177e-22 5.39711e-36)
(1.17118 -0.000147167 0 3.28547e-06 0 0)
(1.17541 -0.000119017 0 3.25659e-06 0 0)
(1.17957 -9.20667e-05 -1.18962e-19 3.22764e-06 1.93717e-22 4.92488e-36)
(1.18366 -6.59724e-05 -1.17633e-19 3.19885e-06 1.87945e-22 4.77415e-36)
(1.18769 -4.02907e-05 0 3.17108e-06 0 0)
(1.19164 -1.4735e-05 0 3.14492e-06 0 0)
(1.19553 1.0673e-05 1.1362e-19 3.12047e-06 -1.71342e-22 4.34129e-36)
(1.19935 3.5615e-05 -1.12274e-19 3.09709e-06 1.66136e-22 4.20327e-36)
(1.2031 5.97435e-05 0 3.07375e-06 0 0)
(1.20678 8.28958e-05 0 3.04959e-06 0 0)
(1.2104 0.000105345 -1.08211e-19 3.02469e-06 1.51481e-22 3.80731e-36)
(1.21395 0.000127433 0 3.00001e-06 0 0)
(1.21743 0.000149166 0 2.97614e-06 0 0)
(1.22084 0.000170349 -1.04114e-19 2.95284e-06 1.37553e-22 3.43748e-36)
(1.22419 0.000190883 0 2.92907e-06 0 0)
(1.22748 0.000211023 -1.01362e-19 2.9054e-06 1.28826e-22 3.20484e-36)
(1.2307 0.000229936 0 2.87911e-06 0 0)
(1.23386 0.000249092 0 2.85471e-06 0 0)
(1.23698 0.000265464 0 2.82103e-06 0 0)
(1.24001 0.000285243 9.58128e-20 2.80031e-06 -1.12554e-22 2.77138e-36)
(1.24305 0.000295184 0 2.74489e-06 0 0)
(1.24592 0.000322876 0 2.75113e-06 0 0)
(1.24901 0.000311721 0 2.6247e-06 0 0)
(1.25157 0.000372784 0 2.74159e-06 0 0)
(1.25505 0.00029534 0 2.40271e-06 0 0)
(1.25683 0.000459407 0 2.85534e-06 0 0)
(1.26154 0.000213932 8.59836e-20 2.02595e-06 -9.16699e-23 2.10819e-36)
(1.26146 0.000607387 8.45129e-20 3.17908e-06 -7.46029e-23 2.02277e-36)
(1.26907 5.38769e-05 0 1.55024e-06 0 0)
(1.2653 0.000787286 0 3.53319e-06 0 0)
(1.27809 -0.00011213 0 1.16765e-06 0 0)
(1.26866 0.0008562 -7.87097e-20 3.22537e-06 4.72841e-23 1.70311e-36)
(1.2887 -0.000115161 0 1.10704e-06 0 0)
(1.27254 0.000623445 1.51539e-19 1.8277e-06 -7.94688e-23 6.22458e-36)