/*--------------------------------*- C++ -*----------------------------------*\
| =========                 |                                                 |
| \\      /  F ield         | OpenFOAM: The Open Source CFD Toolbox           |
|  \\    /   O peration     | Version:  2.1.x                                 |
|   \\  /    A nd           | Web:      www.OpenFOAM.org                      |
|    \\/     M anipulation  |                                                 |
\*---------------------------------------------------------------------------*/
FoamFile
{
    version     2.0;
    format      ascii;
    class       volScalarField;
    location    "0.3";
    object      T;
}
// * * * * * * * * * * * * * * * * * * * * * * * * * * * * * * * * * * * * * //

dimensions      [0 0 0 1 0 0 0];

internalField   nonuniform List<scalar> 
400
(
300.01
300.031
300.053
300.078
300.106
300.136
300.169
300.203
300.237
300.269
300.296
300.317
300.328
300.326
300.31
300.278
300.233
300.175
300.108
300.037
300.031
300.095
300.164
300.241
300.327
300.422
300.525
300.631
300.736
300.835
300.92
300.985
301.019
301.014
300.964
300.867
300.724
300.544
300.337
300.114
300.055
300.168
300.289
300.425
300.577
300.747
300.929
301.119
301.307
301.484
301.639
301.756
301.819
301.811
301.723
301.55
301.296
300.974
300.603
300.204
300.083
300.252
300.436
300.641
300.872
301.13
301.409
301.701
301.991
302.265
302.506
302.69
302.791
302.784
302.652
302.389
301.999
301.503
300.93
300.314
300.116
300.353
300.61
300.899
301.226
301.591
301.989
302.406
302.823
303.219
303.568
303.84
303.992
303.99
303.809
303.436
302.88
302.166
301.34
300.452
300.155
300.474
300.819
301.207
301.648
302.143
302.685
303.255
303.828
304.375
304.86
305.241
305.46
305.471
305.234
304.734
303.975
302.995
301.854
300.625
300.202
300.616
301.065
301.57
302.146
302.796
303.508
304.261
305.021
305.748
306.397
306.911
307.215
307.246
306.953
306.307
305.312
304.012
302.486
300.838
300.257
300.783
301.351
301.992
302.724
303.55
304.459
305.423
306.398
307.335
308.173
308.842
309.25
309.313
308.965
308.163
306.903
305.231
303.248
301.095
300.321
300.975
301.68
302.472
303.377
304.4
305.527
306.723
307.937
309.106
310.156
311
311.53
311.643
311.251
310.292
308.747
306.659
304.148
301.4
300.394
301.194
302.05
303.009
304.1
305.331
306.687
308.128
309.594
311.01
312.288
313.326
314
314.186
313.773
312.673
310.839
308.302
305.196
301.756
300.478
301.443
302.465
303.599
304.88
306.322
307.907
309.591
311.31
312.978
314.493
315.743
316.586
316.88
316.485
315.276
313.17
310.167
306.402
302.17
300.577
301.73
302.931
304.243
305.712
307.352
309.149
311.059
313.015
314.927
316.684
318.162
319.209
319.659
319.337
318.074
315.735
312.269
307.79
302.65
300.698
302.07
303.464
304.954
306.597
308.413
310.391
312.492
314.653
316.787
318.78
320.502
321.79
322.456
322.283
321.048
318.542
314.639
309.399
303.216
300.856
302.499
304.107
305.776
307.576
309.536
311.654
313.898
316.216
318.531
320.739
322.708
324.271
325.216
325.283
324.181
321.609
317.329
311.294
303.9
301.086
303.092
304.957
306.815
308.762
310.842
313.058
315.393
317.808
320.238
322.603
324.789
326.632
327.903
328.302
327.463
324.967
320.419
313.586
304.763
301.463
304.012
306.223
308.315
310.43
312.627
314.912
317.289
319.733
322.177
324.584
326.881
328.935
330.525
331.316
330.882
328.654
324.023
316.454
305.93
302.171
305.622
308.362
310.8
313.156
315.508
317.835
320.171
322.516
324.851
327.155
329.382
331.444
333.183
334.327
334.419
332.703
328.3
320.192
307.659
303.709
308.783
312.377
315.353
317.947
320.356
322.637
324.829
326.954
329.021
331.029
332.951
334.756
336.359
337.58
338.057
337.101
333.441
325.288
310.53
307.758
315.718
320.365
323.669
326.312
328.562
330.543
332.33
333.975
335.512
336.956
338.296
339.544
340.676
341.606
342.122
341.742
339.377
332.568
315.936
321.654
331.566
335.949
338.529
340.268
341.544
342.539
343.355
344.052
344.668
345.221
345.716
346.166
346.573
346.913
347.122
347.016
346.049
342.296
328.047
)
;

boundaryField
{
    movingWall
    {
        type            fixedValue;
        value           uniform 350;
    }
    fixedWalls
    {
        type            fixedValue;
        value           uniform 300;
    }
    frontAndBack
    {
        type            empty;
    }
}


// ************************************************************************* //
