/*--------------------------------*- C++ -*----------------------------------*\
| =========                 |                                                 |
| \\      /  F ield         | OpenFOAM: The Open Source CFD Toolbox           |
|  \\    /   O peration     | Version:  2.1.x                                 |
|   \\  /    A nd           | Web:      www.OpenFOAM.org                      |
|    \\/     M anipulation  |                                                 |
\*---------------------------------------------------------------------------*/
FoamFile
{
    version     2.0;
    format      ascii;
    class       volScalarField;
    location    "0.001";
    object      k;
}
// * * * * * * * * * * * * * * * * * * * * * * * * * * * * * * * * * * * * * //

dimensions      [0 2 -2 0 0 0 0];

internalField   nonuniform List<scalar> 
12225
(
8.98377
9.25119
7.33489
5.46207
4.73703
4.57444
4.72795
4.93548
4.78905
5.5643
4.81318
5.65344
6.30902
5.83562
6.06939
9.25484
10.1186
7.20521
2.37161
4.98755
5.49252
5.25498
4.87631
4.36695
4.23377
3.98232
3.94836
4.03365
3.69984
3.83244
3.86288
3.67724
3.39436
3.46085
3.53611
3.53473
0.197037
1.1482
1.84884
2.18963
2.12251
1.8887
1.50927
1.37677
1.25165
1.05896
1.13833
0.919129
0.85413
0.999744
0.813898
0.545251
0.68948
0.691988
0.0101919
0.120652
0.378943
0.481813
0.45921
0.372831
0.23388
0.178781
0.123062
0.0964178
0.0981174
0.0721753
0.0723742
0.102059
0.0692019
0.0489479
0.0711781
0.0676376
0.000424057
0.00908029
0.0444316
0.0588198
0.0529959
0.0327078
0.0150687
0.00750078
0.0039903
0.00243326
0.00208198
0.0014696
0.00162492
0.00172834
0.00166909
0.00207174
0.00250168
0.00406159
3.9555e-05
0.000525518
0.00330027
0.00435882
0.00373095
0.00180551
0.000716164
0.000330955
0.000168163
8.07919e-05
8.41368e-05
7.22443e-05
5.51019e-05
0.000117661
0.000339663
0.000292574
0.000412147
0.00107229
2.33282e-05
5.49069e-05
0.000221685
0.000316511
0.000297901
0.000228474
0.000193824
0.000149451
0.00010221
8.57259e-05
4.56252e-05
3.69882e-05
6.82418e-05
9.34015e-05
7.46689e-05
0.000131028
0.000658431
0.00134669
2.97028e-05
3.21152e-05
4.01959e-05
5.82321e-05
8.71768e-05
9.35872e-05
9.33623e-05
9.14923e-05
8.49729e-05
4.91925e-05
3.54395e-05
3.37321e-05
2.018e-05
2.26111e-05
8.61624e-05
8.80822e-05
8.79248e-05
0.000288799
2.57175e-05
2.58192e-05
3.60537e-05
6.29656e-05
8.62171e-05
9.34479e-05
9.56704e-05
9.53525e-05
8.31656e-05
6.12944e-05
3.76752e-05
2.09569e-05
2.32622e-05
3.26221e-05
2.7883e-05
3.26953e-05
8.48936e-05
0.000534118
2.20707e-05
2.33979e-05
3.31169e-05
5.70367e-05
8.64561e-05
0.00010394
0.000110963
0.000110581
0.000103613
6.96623e-05
3.97157e-05
3.29206e-05
1.93274e-05
1.55256e-05
2.58365e-05
5.54205e-05
6.39561e-05
9.17849e-05
2.05304e-05
2.20688e-05
2.91784e-05
4.46309e-05
9.41643e-05
0.000135611
0.000148671
0.000148067
0.00013204
8.52706e-05
5.2679e-05
2.77729e-05
2.0265e-05
2.19108e-05
2.11253e-05
2.0486e-05
2.50814e-05
0.000168239
2.18707e-05
2.28264e-05
2.70983e-05
4.4159e-05
0.000105958
0.000149205
0.000163937
0.000162381
0.000143632
9.11567e-05
5.20384e-05
3.15257e-05
2.0882e-05
1.60463e-05
1.65363e-05
2.39618e-05
3.92852e-05
4.67871e-05
2.074e-05
2.16238e-05
2.64619e-05
3.81653e-05
7.91558e-05
0.000125848
0.000149193
0.000151396
0.000140248
9.45084e-05
5.48946e-05
3.09668e-05
1.8871e-05
1.61792e-05
1.61783e-05
1.63494e-05
1.76776e-05
4.20699e-05
2.25285e-05
2.40155e-05
2.92768e-05
4.36456e-05
9.67845e-05
0.000150194
0.000174696
0.000175513
0.000158193
0.000100232
5.61487e-05
3.11427e-05
1.83976e-05
1.34713e-05
1.28757e-05
1.37324e-05
1.76604e-05
2.01774e-05
2.06298e-05
2.22087e-05
3.04444e-05
4.51046e-05
8.93527e-05
0.000143164
0.000167798
0.000170262
0.000158399
0.000106154
5.87845e-05
3.18877e-05
1.78572e-05
1.21013e-05
1.08229e-05
1.09412e-05
1.18796e-05
1.63647e-05
2.034e-05
2.23005e-05
2.94845e-05
4.31222e-05
9.81938e-05
0.000192685
0.00023037
0.00023193
0.00020827
0.000129035
6.92726e-05
3.61615e-05
1.92049e-05
1.16178e-05
9.17048e-06
9.00439e-06
9.47378e-06
1.1264e-05
2.29756e-05
2.49441e-05
2.9823e-05
4.73034e-05
0.00013102
0.000216689
0.000245299
0.000242917
0.000207867
0.000120662
6.31875e-05
3.18768e-05
1.61685e-05
9.16359e-06
6.75886e-06
6.47622e-06
6.73283e-06
7.99485e-06
2.1937e-05
2.34605e-05
2.93514e-05
5.07765e-05
0.000133008
0.000199907
0.000219116
0.000215415
0.000180662
0.000103268
5.34862e-05
2.64994e-05
1.31027e-05
7.0934e-06
4.88234e-06
4.50216e-06
4.6172e-06
5.27448e-06
2.09514e-05
2.19347e-05
2.60401e-05
4.14422e-05
0.000106088
0.000164709
0.000183409
0.000181085
0.000152799
8.70438e-05
4.45788e-05
2.17843e-05
1.05916e-05
5.56062e-06
3.6263e-06
3.21605e-06
3.258e-06
3.60099e-06
2.27287e-05
2.29307e-05
2.86708e-05
3.72011e-05
7.62408e-05
0.000141723
0.000164011
0.000163896
0.000143256
8.38717e-05
4.26954e-05
2.06727e-05
9.92865e-06
5.09712e-06
3.16521e-06
2.66551e-06
2.65875e-06
2.84354e-06
2.05674e-05
2.31659e-05
3.43271e-05
4.68702e-05
8.98041e-05
0.000151831
0.000171729
0.000171069
0.000148211
8.61512e-05
4.39273e-05
2.12259e-05
1.01555e-05
5.14638e-06
3.07684e-06
2.45067e-06
2.3876e-06
2.47233e-06
2.06626e-05
2.24612e-05
2.82292e-05
4.23375e-05
9.51035e-05
0.000134276
0.000143165
0.000140396
0.000116292
6.65017e-05
3.44134e-05
1.69682e-05
8.33064e-06
4.34677e-06
2.67227e-06
2.15866e-06
2.10405e-06
2.16769e-06
2.27567e-05
2.34613e-05
2.65347e-05
3.61588e-05
7.59026e-05
0.000114334
0.000124064
0.000122516
0.000104878
6.15073e-05
3.20965e-05
1.59276e-05
7.86892e-06
4.1225e-06
2.52068e-06
1.99849e-06
1.92427e-06
1.96272e-06
2.20569e-05
2.32654e-05
3.35212e-05
5.75465e-05
0.000104702
0.000128154
0.000129656
0.00012536
0.000102802
5.9865e-05
3.14045e-05
1.56507e-05
7.76601e-06
4.07957e-06
2.48344e-06
1.93714e-06
1.84247e-06
1.86449e-06
2.14688e-05
3.39413e-05
0.000135988
0.000407586
0.000442713
0.000400728
0.000295719
0.00019555
0.000119795
6.75952e-05
3.58021e-05
1.85429e-05
1.00908e-05
6.1606e-06
4.42793e-06
3.77039e-06
3.62336e-06
3.50482e-06
2.78655e-05
0.000452573
0.00356474
0.00825308
0.00800912
0.0062478
0.00324619
0.00158003
0.000793486
0.000423716
0.00025388
0.000168155
0.000130574
0.000108559
9.45164e-05
8.4841e-05
7.95385e-05
6.92923e-05
0.000396132
0.0127388
0.067918
0.122311
0.118791
0.0969022
0.0565924
0.0322701
0.0197087
0.0129155
0.00937248
0.00716097
0.00605073
0.00516721
0.00446975
0.0039748
0.00352518
0.00300806
0.0196496
0.252041
0.765113
1.0197
0.999963
0.887266
0.667981
0.502311
0.393533
0.321102
0.273807
0.237753
0.211239
0.189601
0.167928
0.153532
0.135106
0.124502
0.604081
2.99997
4.1911
4.31157
4.14954
3.73128
3.25996
2.95992
2.74246
2.54663
2.37727
2.22281
2.09156
1.96547
1.8397
1.74161
1.61231
1.53698
6.83906
9.9699
9.05383
7.19896
6.03466
5.54453
5.40713
5.34767
5.23873
5.10506
4.9803
4.86489
4.75872
4.63072
4.54786
4.39585
4.33109
4.19479
3.85323e-05
2.85547e-05
3.47899e-05
5.09872e-05
7.83396e-05
0.000121195
0.000186129
0.000280974
0.000415107
0.000599413
0.000846332
0.00116988
0.00158545
0.00210986
0.00276105
0.003558
0.00452083
0.00566979
0.00702592
0.00861057
0.0104445
0.0125476
0.0149399
0.0176404
0.0206666
0.024033
0.0277542
0.0318417
0.0363063
0.0411555
0.0463943
0.0520222
0.0580383
0.0644471
0.071245
0.0784147
0.0859461
0.0938389
0.102083
0.11065
0.11952
0.12869
0.13815
0.147862
0.157798
0.167954
0.178323
0.188871
0.199561
0.210383
0.221337
0.232398
0.243531
0.254716
0.265954
0.277236
0.288534
0.299823
0.311097
0.32236
0.333595
0.344781
0.355908
0.366976
0.377985
0.38892
0.399771
0.410533
0.42121
0.431802
0.442297
0.452693
0.46299
0.473194
0.4833
0.493306
0.503213
0.513026
0.522747
0.532374
0.541906
0.551347
0.560708
0.569993
0.579198
0.588319
0.59735
0.6063
0.615179
0.62399
0.632733
0.641411
0.650034
0.65861
0.667142
0.675633
0.684088
0.692514
0.700921
0.709313
0.717692
0.726057
0.73441
0.74276
0.751114
0.759476
0.767847
0.776227
0.784618
0.793027
0.801458
0.809918
0.818406
0.826926
0.835477
0.844063
0.85269
0.86136
0.870076
0.878841
0.887657
0.896525
0.905448
0.914426
0.923464
0.932566
0.941735
0.950973
0.96028
0.969657
0.979104
0.988626
0.998225
1.00791
1.01767
1.02751
1.03744
1.04745
1.05755
1.06773
1.07801
1.08837
1.09883
1.10939
1.12003
1.13077
1.14161
1.15254
1.16358
1.17471
1.18595
1.19728
1.20871
1.22024
1.23187
1.24359
1.2554
1.26731
1.27931
1.29138
1.30352
1.31572
1.32796
1.34022
1.35247
1.36468
1.3768
1.38876
1.40049
1.41186
1.42273
1.43285
1.44198
1.4495
1.45523
1.45686
1.45532
1.44227
1.42605
1.37633
0.000370746
6.21111e-05
2.62419e-05
2.37507e-05
2.36344e-05
2.36839e-05
2.3768e-05
2.38968e-05
2.4074e-05
2.43486e-05
2.4777e-05
2.54229e-05
2.63535e-05
2.76439e-05
2.93809e-05
3.16561e-05
3.45662e-05
3.82155e-05
4.27222e-05
4.82028e-05
5.47777e-05
6.25888e-05
7.17907e-05
8.25319e-05
9.49684e-05
0.000109278
0.000125655
0.000144273
0.000165329
0.000189032
0.000215577
0.000245135
0.000277905
0.000314124
0.000353968
0.000397538
0.00044501
0.000496602
0.000552457
0.000612592
0.000677082
0.000746128
0.00081984
0.000898121
0.000980932
0.00106839
0.0011606
0.00125744
0.0013587
0.00146438
0.00157459
0.00168924
0.00180803
0.00193081
0.00205762
0.00218846
0.00232306
0.00246117
0.00260267
0.00274763
0.00289589
0.0030472
0.00320135
0.00335833
0.0035181
0.00368051
0.00384534
0.00401245
0.00418187
0.00435356
0.00452735
0.00470313
0.00488082
0.00506047
0.00524202
0.00542535
0.00561043
0.00579729
0.00598598
0.00617638
0.00636844
0.0065622
0.00675777
0.00695527
0.00715463
0.00735595
0.00757232
0.00780493
0.00805105
0.00830844
0.00857507
0.0088498
0.00913162
0.00942023
0.0097134
0.0100088
0.0103055
0.0106036
0.0109033
0.0112046
0.0115067
0.0118094
0.0121131
0.0124187
0.0127271
0.0130381
0.013351
0.0136659
0.0139832
0.0143037
0.0146279
0.014956
0.0152878
0.0156232
0.0159626
0.0163063
0.0166549
0.0170085
0.0173676
0.0177322
0.0181025
0.0184786
0.0188605
0.0192488
0.0196437
0.020046
0.0204558
0.0208732
0.0212984
0.0217314
0.0221726
0.0226225
0.0230816
0.0235503
0.0240288
0.0245171
0.0250154
0.0255241
0.0260437
0.0265747
0.0271174
0.0276719
0.0282386
0.0288178
0.0294098
0.0300151
0.0306343
0.0312678
0.0319161
0.0325794
0.0332581
0.0339526
0.0346633
0.0353909
0.0361358
0.0368989
0.0376806
0.0384815
0.0393024
0.0401438
0.0410065
0.0418913
0.042799
0.0437306
0.0446877
0.045671
0.0466823
0.0477239
0.0487973
0.0499077
0.051059
0.0522573
0.0535309
0.0548268
0.0564782
0.0574986
0.0611466
0.0612121
0.0733835
0.0937891
0.00187074
0.000212723
3.86294e-05
2.54642e-05
2.44007e-05
2.42204e-05
2.40411e-05
2.37881e-05
2.34691e-05
2.30816e-05
2.26235e-05
2.20942e-05
2.14942e-05
2.08265e-05
2.00987e-05
1.93173e-05
1.84871e-05
1.76179e-05
1.67202e-05
1.57951e-05
1.48514e-05
1.39128e-05
1.29896e-05
1.20707e-05
1.11624e-05
1.0297e-05
9.48189e-06
8.69526e-06
7.94206e-06
7.249e-06
6.618e-06
6.03059e-06
5.49023e-06
5.01408e-06
4.60058e-06
4.23658e-06
3.92059e-06
3.6607e-06
3.44059e-06
3.26364e-06
3.14872e-06
3.07554e-06
3.03815e-06
3.03132e-06
3.05176e-06
3.10121e-06
3.17778e-06
3.27939e-06
3.40356e-06
3.54863e-06
3.71355e-06
3.89731e-06
4.09863e-06
4.31625e-06
4.54942e-06
4.79792e-06
5.06122e-06
5.33861e-06
5.62942e-06
5.93349e-06
6.25068e-06
6.58069e-06
6.92295e-06
7.27722e-06
7.64342e-06
8.0215e-06
8.41106e-06
8.81174e-06
9.2235e-06
9.64639e-06
1.00802e-05
1.05247e-05
1.09797e-05
1.14454e-05
1.19216e-05
1.24084e-05
1.29055e-05
1.34131e-05
1.39314e-05
1.44603e-05
1.49998e-05
1.55499e-05
1.61111e-05
1.66837e-05
1.72679e-05
1.78631e-05
1.84739e-05
1.91135e-05
1.97894e-05
2.0502e-05
2.13475e-05
2.24837e-05
2.38283e-05
2.53324e-05
2.69409e-05
2.86074e-05
3.03082e-05
3.20344e-05
3.3783e-05
3.55481e-05
3.73229e-05
3.91053e-05
4.08992e-05
4.27112e-05
4.45438e-05
4.63941e-05
4.82567e-05
5.01315e-05
5.20229e-05
5.39371e-05
5.58779e-05
5.78447e-05
5.98352e-05
6.18497e-05
6.38902e-05
6.59607e-05
6.80658e-05
7.02088e-05
7.23918e-05
7.46161e-05
7.68813e-05
7.91873e-05
8.15365e-05
8.39339e-05
8.63856e-05
8.88962e-05
9.14673e-05
9.4099e-05
9.67915e-05
9.95492e-05
0.000102377
0.000105281
0.000108265
0.000111333
0.000114486
0.000117727
0.000121059
0.00012449
0.000128024
0.000131667
0.000135422
0.000139291
0.000143278
0.00014739
0.00015163
0.000156009
0.000160535
0.000165215
0.000170053
0.000175056
0.00018023
0.000185582
0.000191122
0.000196866
0.000202822
0.000209006
0.000215433
0.000222115
0.00022908
0.000236349
0.000243948
0.000251921
0.000260299
0.000269134
0.00027851
0.000288498
0.000299212
0.000310829
0.000323517
0.000337609
0.000353506
0.000371776
0.000393754
0.000419276
0.000457755
0.00048909
0.000603007
0.000648351
0.00105536
0.00217872
0.00616822
0.000624232
7.07371e-05
2.94094e-05
2.60793e-05
2.57314e-05
2.55563e-05
2.53227e-05
2.50092e-05
2.46127e-05
2.41335e-05
2.35722e-05
2.29289e-05
2.22073e-05
2.142e-05
2.05728e-05
1.96606e-05
1.86954e-05
1.77055e-05
1.66954e-05
1.56552e-05
1.46038e-05
1.35712e-05
1.25547e-05
1.15477e-05
1.05709e-05
9.63941e-06
8.74847e-06
7.90286e-06
7.11329e-06
6.37398e-06
5.68223e-06
5.04914e-06
4.476e-06
3.94905e-06
3.46432e-06
3.03087e-06
2.64846e-06
2.30486e-06
1.99409e-06
1.72e-06
1.483e-06
1.27551e-06
1.09125e-06
9.29975e-07
7.92046e-07
6.74095e-07
5.71683e-07
4.82851e-07
4.07202e-07
3.43494e-07
2.89396e-07
2.43177e-07
2.04008e-07
1.7125e-07
1.43958e-07
1.21118e-07
1.01989e-07
8.60863e-08
7.29866e-08
6.22423e-08
5.3435e-08
4.62357e-08
4.03926e-08
3.57128e-08
3.18221e-08
2.87352e-08
2.652e-08
2.48828e-08
2.36383e-08
2.27265e-08
2.20928e-08
2.16893e-08
2.14782e-08
2.14257e-08
2.15015e-08
2.16973e-08
2.19934e-08
2.23732e-08
2.2826e-08
2.33428e-08
2.39157e-08
2.45379e-08
2.52046e-08
2.59123e-08
2.66588e-08
2.74415e-08
2.8265e-08
2.91343e-08
3.00659e-08
3.10683e-08
3.22123e-08
3.45455e-08
3.80584e-08
4.23317e-08
4.70539e-08
5.2061e-08
5.72801e-08
6.26744e-08
6.8208e-08
7.38498e-08
7.95878e-08
8.54311e-08
9.13911e-08
9.74637e-08
1.03627e-07
1.09853e-07
1.16137e-07
1.22494e-07
1.28944e-07
1.35495e-07
1.42136e-07
1.48853e-07
1.55638e-07
1.62495e-07
1.69441e-07
1.76496e-07
1.83674e-07
1.9098e-07
1.9841e-07
2.0595e-07
2.13595e-07
2.21361e-07
2.29278e-07
2.37372e-07
2.45658e-07
2.54128e-07
2.62772e-07
2.71593e-07
2.80614e-07
2.89865e-07
2.99374e-07
3.09148e-07
3.19195e-07
3.29517e-07
3.40122e-07
3.51033e-07
3.62285e-07
3.73905e-07
3.85905e-07
3.98289e-07
4.11065e-07
4.24248e-07
4.3786e-07
4.51926e-07
4.66495e-07
4.81623e-07
4.97329e-07
5.13617e-07
5.30521e-07
5.48077e-07
5.66311e-07
5.85282e-07
6.05093e-07
6.25792e-07
6.47458e-07
6.70197e-07
6.94083e-07
7.19321e-07
7.46088e-07
7.74578e-07
8.05158e-07
8.38133e-07
8.73945e-07
9.13365e-07
9.57163e-07
1.00647e-06
1.06315e-06
1.12916e-06
1.20814e-06
1.30504e-06
1.42697e-06
1.58974e-06
1.80005e-06
2.15749e-06
2.50905e-06
3.80578e-06
4.76785e-06
1.06894e-05
3.9691e-05
0.0155108
0.00152578
0.000138589
3.68618e-05
2.8587e-05
2.78396e-05
2.76423e-05
2.74127e-05
2.7098e-05
2.66887e-05
2.61823e-05
2.55819e-05
2.4889e-05
2.41028e-05
2.32351e-05
2.23e-05
2.12952e-05
2.02278e-05
1.91256e-05
1.79983e-05
1.68424e-05
1.56841e-05
1.45471e-05
1.34185e-05
1.23033e-05
1.12417e-05
1.02384e-05
9.26707e-06
8.33771e-06
7.48035e-06
6.69342e-06
5.9589e-06
5.27676e-06
4.65596e-06
4.09622e-06
3.5914e-06
3.13676e-06
2.72865e-06
2.36483e-06
2.04433e-06
1.76355e-06
1.51597e-06
1.29718e-06
1.10669e-06
9.43317e-07
8.02578e-07
6.79865e-07
5.7351e-07
4.83125e-07
4.06863e-07
3.4176e-07
2.85812e-07
2.38293e-07
1.98553e-07
1.65331e-07
1.37282e-07
1.13561e-07
9.3723e-08
7.73015e-08
6.36868e-08
5.23333e-08
4.2875e-08
3.50569e-08
2.86348e-08
2.33594e-08
1.90152e-08
1.54422e-08
1.25161e-08
1.013e-08
8.18802e-09
6.60859e-09
5.32496e-09
4.28293e-09
3.43896e-09
2.75782e-09
2.21007e-09
1.77029e-09
1.41695e-09
1.13304e-09
9.0565e-10
7.24469e-10
5.80604e-10
4.66431e-10
3.75803e-10
3.04019e-10
2.47453e-10
2.031e-10
1.68398e-10
1.41292e-10
1.20274e-10
1.03436e-10
9.08072e-11
8.286e-11
8.03353e-11
8.17916e-11
8.67988e-11
9.42222e-11
1.03442e-10
1.14085e-10
1.25874e-10
1.38618e-10
1.52211e-10
1.66615e-10
1.81792e-10
1.97666e-10
2.14121e-10
2.3105e-10
2.48412e-10
2.66232e-10
2.84541e-10
3.03332e-10
3.22551e-10
3.42124e-10
3.62002e-10
3.82177e-10
4.02691e-10
4.23607e-10
4.44964e-10
4.66765e-10
4.88966e-10
5.11486e-10
5.34297e-10
5.57456e-10
5.81086e-10
6.05286e-10
6.30069e-10
6.55375e-10
6.81139e-10
7.07368e-10
7.34162e-10
7.61651e-10
7.89932e-10
8.19014e-10
8.48884e-10
8.79528e-10
9.10976e-10
9.43329e-10
9.76732e-10
1.01129e-09
1.04703e-09
1.08395e-09
1.12203e-09
1.16131e-09
1.20188e-09
1.24385e-09
1.2874e-09
1.33278e-09
1.38004e-09
1.42917e-09
1.48027e-09
1.53348e-09
1.58891e-09
1.64681e-09
1.70764e-09
1.77162e-09
1.83906e-09
1.91044e-09
1.98612e-09
2.06702e-09
2.15413e-09
2.24837e-09
2.35162e-09
2.46564e-09
2.59273e-09
2.73713e-09
2.90351e-09
3.09853e-09
3.33353e-09
3.62172e-09
3.98703e-09
4.46557e-09
5.11297e-09
6.05126e-09
7.39164e-09
9.89798e-09
1.29748e-08
2.38506e-08
3.96047e-08
1.15148e-07
7.18709e-07
0.0325647
0.00323829
0.00026587
5.00191e-05
3.2309e-05
3.07846e-05
3.05516e-05
3.03389e-05
3.00327e-05
2.96168e-05
2.90836e-05
2.84339e-05
2.76705e-05
2.67921e-05
2.58132e-05
2.47505e-05
2.35971e-05
2.23657e-05
2.1104e-05
1.9822e-05
1.84971e-05
1.71606e-05
1.586e-05
1.45884e-05
1.33396e-05
1.2141e-05
1.10015e-05
9.91736e-06
8.90432e-06
7.96898e-06
7.09589e-06
6.28349e-06
5.54775e-06
4.88864e-06
4.28902e-06
3.74232e-06
3.25478e-06
2.8267e-06
2.4481e-06
2.11052e-06
1.81228e-06
1.55275e-06
1.32826e-06
1.13332e-06
9.63487e-07
8.16225e-07
6.89942e-07
5.82498e-07
4.9091e-07
4.12335e-07
3.45075e-07
2.88233e-07
2.40636e-07
2.00608e-07
1.66666e-07
1.37969e-07
1.14038e-07
9.4239e-08
7.77694e-08
6.39719e-08
5.24509e-08
4.29375e-08
3.51358e-08
2.87144e-08
2.34032e-08
1.90219e-08
1.54334e-08
1.25085e-08
1.01242e-08
8.17765e-09
6.59127e-09
5.30275e-09
4.25883e-09
3.41424e-09
2.73236e-09
2.18339e-09
1.74216e-09
1.38762e-09
1.10273e-09
8.74489e-10
6.92406e-10
5.47604e-10
4.32462e-10
3.40853e-10
2.6807e-10
2.10458e-10
1.64983e-10
1.29144e-10
1.009e-10
7.8692e-11
6.12752e-11
4.76714e-11
3.70305e-11
2.87097e-11
2.22286e-11
1.71969e-11
1.3309e-11
1.03148e-11
8.00676e-12
6.22595e-12
4.85666e-12
3.81246e-12
3.02317e-12
2.43072e-12
1.98831e-12
1.66061e-12
1.42162e-12
1.2513e-12
1.12851e-12
1.05638e-12
1.0146e-12
9.94968e-13
9.92314e-13
1.00293e-12
1.02444e-12
1.05449e-12
1.09135e-12
1.13392e-12
1.18135e-12
1.23275e-12
1.28717e-12
1.344e-12
1.40307e-12
1.46462e-12
1.52879e-12
1.59546e-12
1.66422e-12
1.7347e-12
1.80683e-12
1.88094e-12
1.95746e-12
2.03664e-12
2.1184e-12
2.20254e-12
2.28896e-12
2.37779e-12
2.4694e-12
2.56429e-12
2.66279e-12
2.7649e-12
2.87051e-12
2.97955e-12
3.09209e-12
3.20841e-12
3.32896e-12
3.45438e-12
3.58546e-12
3.72247e-12
3.86526e-12
4.01404e-12
4.16938e-12
4.3317e-12
4.50189e-12
4.68177e-12
4.87225e-12
5.07433e-12
5.29005e-12
5.52083e-12
5.77038e-12
6.0432e-12
6.34342e-12
6.67943e-12
7.06027e-12
7.49766e-12
8.01329e-12
8.63469e-12
9.40294e-12
1.03907e-11
1.17011e-11
1.35304e-11
1.62296e-11
2.04965e-11
2.7914e-11
4.28628e-11
8.10356e-11
1.88744e-10
5.19795e-10
1.77967e-09
5.63527e-09
3.31004e-08
0.0601354
0.00617996
0.000486138
7.19986e-05
3.7745e-05
3.48259e-05
3.45387e-05
3.43773e-05
3.41094e-05
3.3703e-05
3.31449e-05
3.24369e-05
3.1583e-05
3.05711e-05
2.94186e-05
2.81666e-05
2.68108e-05
2.53519e-05
2.3843e-05
2.23089e-05
2.07403e-05
1.91756e-05
1.76503e-05
1.61511e-05
1.46928e-05
1.33159e-05
1.20196e-05
1.07881e-05
9.63399e-06
8.57249e-06
7.60046e-06
6.71262e-06
5.90589e-06
5.17435e-06
4.51478e-06
3.92879e-06
3.41216e-06
2.95308e-06
2.54364e-06
2.1839e-06
1.87295e-06
1.60357e-06
1.36767e-06
1.16164e-06
9.84464e-07
8.33589e-07
7.04623e-07
5.9364e-07
4.98378e-07
4.17499e-07
3.49426e-07
2.92116e-07
2.43577e-07
2.02394e-07
1.67736e-07
1.38894e-07
1.14957e-07
9.4959e-08
7.81703e-08
6.41579e-08
5.2602e-08
4.312e-08
3.52936e-08
2.87993e-08
2.3431e-08
1.90357e-08
1.54575e-08
1.25358e-08
1.01409e-08
8.18234e-09
6.5908e-09
5.30307e-09
4.26069e-09
3.41586e-09
2.73276e-09
2.18283e-09
1.74131e-09
1.38679e-09
1.10202e-09
8.73879e-10
6.91955e-10
5.47267e-10
4.32178e-10
3.40555e-10
2.6776e-10
2.10157e-10
1.64729e-10
1.2895e-10
1.00757e-10
7.85676e-11
6.11586e-11
4.75468e-11
3.69126e-11
2.86054e-11
2.21274e-11
1.7088e-11
1.31811e-11
1.01588e-11
7.81981e-12
6.00864e-12
4.60849e-12
3.52988e-12
2.70165e-12
2.06673e-12
1.58035e-12
1.20803e-12
9.23672e-13
7.0671e-13
5.40914e-13
4.1392e-13
3.16681e-13
2.42523e-13
1.86294e-13
1.43761e-13
1.11459e-13
8.67188e-14
6.76993e-14
5.31433e-14
4.21194e-14
3.38315e-14
2.75843e-14
2.28302e-14
1.91773e-14
1.63657e-14
1.42137e-14
1.25807e-14
1.13347e-14
1.03844e-14
9.70603e-15
9.21332e-15
8.86466e-15
8.63086e-15
8.48426e-15
8.40494e-15
8.38269e-15
8.41199e-15
8.49216e-15
8.61627e-15
8.77513e-15
8.95903e-15
9.16226e-15
9.38483e-15
9.6294e-15
9.89812e-15
1.01901e-14
1.05033e-14
1.0837e-14
1.11906e-14
1.15634e-14
1.19567e-14
1.23724e-14
1.28115e-14
1.3276e-14
1.3773e-14
1.43066e-14
1.48803e-14
1.55041e-14
1.61863e-14
1.69497e-14
1.78263e-14
1.88528e-14
2.01164e-14
2.17321e-14
2.38872e-14
2.70274e-14
3.18528e-14
4.01252e-14
5.63962e-14
9.35822e-14
1.87376e-13
4.34412e-13
1.12989e-12
3.1715e-12
9.49416e-12
2.92803e-11
9.70608e-11
3.07464e-10
1.07954e-09
3.23226e-09
1.069e-08
0.100831
0.0108619
0.0008444
0.000107112
4.56411e-05
4.03884e-05
4.00357e-05
3.99944e-05
3.98314e-05
3.94798e-05
3.89109e-05
3.81251e-05
3.71403e-05
3.59419e-05
3.45425e-05
3.29961e-05
3.13106e-05
2.94962e-05
2.76306e-05
2.57406e-05
2.38106e-05
2.18893e-05
2.00278e-05
1.82263e-05
1.64976e-05
1.48634e-05
1.33227e-05
1.18818e-05
1.05596e-05
9.35363e-06
8.24735e-06
7.23739e-06
6.32976e-06
5.52197e-06
4.80323e-06
4.16311e-06
3.5948e-06
3.09415e-06
2.65755e-06
2.27856e-06
1.94816e-06
1.65931e-06
1.40898e-06
1.19491e-06
1.01233e-06
8.5535e-07
7.19991e-07
6.04427e-07
5.06936e-07
4.24829e-07
3.55234e-07
2.96068e-07
2.46073e-07
2.04242e-07
1.69412e-07
1.40333e-07
1.15943e-07
9.54964e-08
7.84864e-08
6.44635e-08
5.29168e-08
4.33537e-08
3.54077e-08
2.88382e-08
2.34612e-08
1.90831e-08
1.55035e-08
1.25601e-08
1.01452e-08
8.18043e-09
6.5924e-09
5.30789e-09
4.26438e-09
3.41666e-09
2.73174e-09
2.18171e-09
1.74069e-09
1.38632e-09
1.10148e-09
8.73399e-10
6.9161e-10
5.47026e-10
4.31914e-10
3.40229e-10
2.67418e-10
2.09868e-10
1.64542e-10
1.28831e-10
1.00675e-10
7.84736e-11
6.10584e-11
4.74507e-11
3.68264e-11
2.8541e-11
2.20895e-11
1.70667e-11
1.31631e-11
1.01396e-11
7.80135e-12
5.99442e-12
4.59887e-12
3.52216e-12
2.69362e-12
2.05804e-12
1.57219e-12
1.2017e-12
9.19246e-13
7.03235e-13
5.37504e-13
4.10294e-13
3.13039e-13
2.39238e-13
1.83502e-13
1.41311e-13
1.09052e-13
8.41328e-14
6.48626e-14
5.01028e-14
3.89287e-14
3.05237e-14
2.4164e-14
1.92817e-14
1.54804e-14
1.25051e-14
1.01844e-14
8.38379e-15
6.98503e-15
5.88712e-15
5.01455e-15
4.31694e-15
3.75832e-15
3.30739e-15
2.93675e-15
2.62877e-15
2.37575e-15
2.17291e-15
2.01302e-15
1.88597e-15
1.78054e-15
1.68751e-15
1.60311e-15
1.52909e-15
1.46834e-15
1.4209e-15
1.38317e-15
1.35059e-15
1.32036e-15
1.29188e-15
1.266e-15
1.24357e-15
1.22442e-15
1.20767e-15
1.19229e-15
1.17891e-15
1.16783e-15
1.16005e-15
1.15729e-15
1.15966e-15
1.17363e-15
1.21248e-15
1.28826e-15
1.43945e-15
1.7254e-15
2.25101e-15
3.31997e-15
5.60327e-15
1.07742e-14
2.32476e-14
5.49424e-14
1.39153e-13
3.70794e-13
1.02993e-12
2.95442e-12
8.78966e-12
2.65987e-11
8.40432e-11
2.57364e-10
8.15749e-10
2.3837e-09
6.6139e-09
0.156647
0.017856
0.00139535
0.000160772
5.7054e-05
4.81594e-05
4.77922e-05
4.80169e-05
4.80934e-05
4.78959e-05
4.73515e-05
4.64737e-05
4.52871e-05
4.3773e-05
4.19602e-05
3.99443e-05
3.77527e-05
3.53934e-05
3.29502e-05
3.04796e-05
2.80065e-05
2.55852e-05
2.32437e-05
2.09886e-05
1.885e-05
1.68547e-05
1.50045e-05
1.3298e-05
1.17357e-05
1.03137e-05
9.02923e-06
7.88112e-06
6.85996e-06
5.95037e-06
5.14177e-06
4.42967e-06
3.80837e-06
3.26772e-06
2.79626e-06
2.38495e-06
2.02824e-06
1.72187e-06
1.46018e-06
1.23588e-06
1.04263e-06
8.76817e-07
7.36298e-07
6.18047e-07
5.18046e-07
4.3287e-07
3.60529e-07
2.998e-07
2.49207e-07
2.06948e-07
1.71442e-07
1.41606e-07
1.16696e-07
9.60695e-08
7.90407e-08
6.49419e-08
5.32288e-08
4.35042e-08
3.54785e-08
2.89087e-08
2.35477e-08
1.9154e-08
1.55369e-08
1.25656e-08
1.01441e-08
8.18569e-09
6.60189e-09
5.31434e-09
4.26543e-09
3.41465e-09
2.73003e-09
2.18138e-09
1.74083e-09
1.38609e-09
1.10086e-09
8.72756e-10
6.91189e-10
5.46716e-10
4.31567e-10
3.39815e-10
2.67032e-10
2.09605e-10
1.64401e-10
1.28745e-10
1.00582e-10
7.83448e-11
6.09194e-11
4.73232e-11
3.67145e-11
2.84634e-11
2.20427e-11
1.70314e-11
1.31304e-11
1.01097e-11
7.77895e-12
5.98042e-12
4.58975e-12
3.51441e-12
2.68562e-12
2.05051e-12
1.56621e-12
1.1976e-12
9.16293e-13
7.00401e-13
5.34358e-13
4.07136e-13
3.10417e-13
2.37432e-13
1.82452e-13
1.40699e-13
1.08563e-13
8.36397e-14
6.43769e-14
4.96797e-14
3.86012e-14
3.02844e-14
2.39818e-14
1.91202e-14
1.53198e-14
1.23454e-14
1.00395e-14
8.26696e-15
6.90136e-15
5.83203e-15
4.97855e-15
4.28977e-15
3.73142e-15
3.27652e-15
2.90212e-15
2.5938e-15
2.34362e-15
2.14483e-15
1.98797e-15
1.86159e-15
1.75437e-15
1.65857e-15
1.57279e-15
1.5001e-15
1.44232e-15
1.39777e-15
1.36178e-15
1.32905e-15
1.29728e-15
1.26715e-15
1.24083e-15
1.21906e-15
1.20102e-15
1.18557e-15
1.17154e-15
1.15941e-15
1.14951e-15
1.14302e-15
1.14194e-15
1.14572e-15
1.16196e-15
1.20385e-15
1.28891e-15
1.45119e-15
1.756e-15
2.30796e-15
3.42178e-15
5.78045e-15
1.10813e-14
2.37625e-14
5.56937e-14
1.3965e-13
3.6777e-13
1.00693e-12
2.83946e-12
8.2435e-12
2.42826e-11
7.31855e-11
2.1642e-10
6.3473e-10
1.78381e-09
4.58011e-09
0.228469
0.027699
0.00219134
0.000238316
7.34979e-05
5.9424e-05
5.92752e-05
6.00673e-05
6.06846e-05
6.08037e-05
6.03681e-05
5.92999e-05
5.7738e-05
5.56784e-05
5.31562e-05
5.03117e-05
4.72179e-05
4.39295e-05
4.05635e-05
3.71995e-05
3.38768e-05
3.06533e-05
2.75733e-05
2.46681e-05
2.19611e-05
1.94607e-05
1.71668e-05
1.50781e-05
1.31932e-05
1.15065e-05
1.00052e-05
8.67056e-06
7.48736e-06
6.44675e-06
5.53949e-06
4.75062e-06
4.06345e-06
3.46535e-06
2.94776e-06
2.503e-06
2.12244e-06
1.79673e-06
1.51736e-06
1.27783e-06
1.07387e-06
9.01682e-07
7.56594e-07
6.33567e-07
5.28839e-07
4.40298e-07
3.66318e-07
3.04742e-07
2.53139e-07
2.09629e-07
1.73093e-07
1.42739e-07
1.17689e-07
9.69551e-08
7.96961e-08
6.5328e-08
5.34295e-08
4.36411e-08
3.56228e-08
2.90499e-08
2.36453e-08
1.9198e-08
1.55479e-08
1.25709e-08
1.01574e-08
8.20218e-09
6.61209e-09
5.31584e-09
4.26223e-09
3.41216e-09
2.72999e-09
2.18231e-09
1.74109e-09
1.38533e-09
1.09974e-09
8.71891e-10
6.90661e-10
5.46314e-10
4.311e-10
3.39337e-10
2.66656e-10
2.09394e-10
1.64293e-10
1.28652e-10
1.0043e-10
7.81644e-11
6.07412e-11
4.71929e-11
3.66368e-11
2.84132e-11
2.19988e-11
1.69848e-11
1.3084e-11
1.00716e-11
7.75294e-12
5.96443e-12
4.5788e-12
3.50486e-12
2.67706e-12
2.04413e-12
1.56224e-12
1.19493e-12
9.13344e-13
6.96624e-13
5.30223e-13
4.03437e-13
3.07664e-13
2.35631e-13
1.81243e-13
1.39708e-13
1.07638e-13
8.28112e-14
6.37342e-14
4.92522e-14
3.83481e-14
3.01303e-14
2.38522e-14
1.8972e-14
1.51469e-14
1.21673e-14
9.8818e-15
8.146e-15
6.82023e-15
5.78272e-15
4.94766e-15
4.26455e-15
3.70477e-15
3.24755e-15
2.87449e-15
2.57126e-15
2.32753e-15
2.13436e-15
1.98052e-15
1.85375e-15
1.74397e-15
1.64583e-15
1.56039e-15
1.49089e-15
1.43742e-15
1.3967e-15
1.36307e-15
1.33089e-15
1.29837e-15
1.26778e-15
1.2423e-15
1.22251e-15
1.20706e-15
1.19444e-15
1.18335e-15
1.17397e-15
1.16693e-15
1.16386e-15
1.16492e-15
1.17272e-15
1.19535e-15
1.247e-15
1.34394e-15
1.52154e-15
1.85216e-15
2.44052e-15
3.60423e-15
6.05371e-15
1.15067e-14
2.44217e-14
5.66079e-14
1.4026e-13
3.64541e-13
9.82906e-13
2.72307e-12
7.71562e-12
2.21313e-11
6.39598e-11
1.8291e-10
5.04202e-10
1.3642e-09
3.37814e-09
0.31543
0.0406593
0.00324311
0.000341902
9.82543e-05
7.78172e-05
7.82879e-05
8.01774e-05
8.17407e-05
8.23533e-05
8.20032e-05
8.04846e-05
7.80398e-05
7.47957e-05
7.08442e-05
6.64109e-05
6.16811e-05
5.676e-05
5.17828e-05
4.68905e-05
4.21818e-05
3.77101e-05
3.35159e-05
2.96327e-05
2.60718e-05
2.28394e-05
1.99337e-05
1.73358e-05
1.50236e-05
1.29795e-05
1.1181e-05
9.60423e-06
8.2305e-06
7.04126e-06
6.01163e-06
5.11817e-06
4.3462e-06
3.6853e-06
3.12199e-06
2.64047e-06
2.22797e-06
1.87578e-06
1.5768e-06
1.324e-06
1.11055e-06
9.30171e-07
7.77466e-07
6.48306e-07
5.39731e-07
4.49106e-07
3.73506e-07
3.10049e-07
2.56612e-07
2.11894e-07
1.74874e-07
1.44328e-07
1.18964e-07
9.77894e-08
8.01614e-08
6.56113e-08
5.36808e-08
4.3893e-08
3.58249e-08
2.91696e-08
2.36983e-08
1.92194e-08
1.55681e-08
1.25985e-08
1.01829e-08
8.21637e-09
6.61429e-09
5.31221e-09
4.25958e-09
3.41266e-09
2.73177e-09
2.18315e-09
1.74024e-09
1.38364e-09
1.09825e-09
8.71002e-10
6.9013e-10
5.45785e-10
4.30499e-10
3.38784e-10
2.66293e-10
2.0922e-10
1.64154e-10
1.28485e-10
1.00197e-10
7.79315e-11
6.06003e-11
4.70993e-11
3.65636e-11
2.83621e-11
2.19507e-11
1.69281e-11
1.30287e-11
1.00299e-11
7.72636e-12
5.94619e-12
4.56333e-12
3.49145e-12
2.6676e-12
2.03883e-12
1.55952e-12
1.19232e-12
9.09495e-13
6.91835e-13
5.25639e-13
3.99941e-13
3.05329e-13
2.33971e-13
1.79741e-13
1.38182e-13
1.06212e-13
8.16936e-14
6.30077e-14
4.886e-14
3.8164e-14
3.00183e-14
2.37238e-14
1.88017e-14
1.4949e-14
1.19728e-14
9.71726e-15
8.0251e-15
6.73983e-15
5.72921e-15
4.9046e-15
4.22122e-15
3.65971e-15
3.20498e-15
2.83974e-15
2.54688e-15
2.31295e-15
2.12605e-15
1.97351e-15
1.84418e-15
1.73085e-15
1.63109e-15
1.54738e-15
1.48198e-15
1.43311e-15
1.39586e-15
1.36384e-15
1.33163e-15
1.29838e-15
1.26792e-15
1.24373e-15
1.22617e-15
1.21336e-15
1.20356e-15
1.19533e-15
1.1886e-15
1.18461e-15
1.18423e-15
1.18787e-15
1.20124e-15
1.23145e-15
1.29299e-15
1.40346e-15
1.59664e-15
1.95268e-15
2.58171e-15
3.7942e-15
6.33231e-15
1.19361e-14
2.50736e-14
5.74761e-14
1.40755e-13
3.61073e-13
9.58635e-13
2.60903e-12
7.2202e-12
2.01812e-11
5.61999e-11
1.5568e-10
4.08487e-10
1.06885e-09
2.63051e-09
0.413846
0.0565688
0.00443326
0.000476028
0.000151083
0.000122691
0.000121593
0.00012277
0.00012397
0.000123931
0.000122497
0.000119011
0.000114053
0.000107845
0.000100657
9.28623e-05
8.48029e-05
7.67115e-05
6.88124e-05
6.12879e-05
5.42355e-05
4.77055e-05
4.17444e-05
3.63594e-05
3.15344e-05
2.7258e-05
2.34929e-05
2.01808e-05
1.72823e-05
1.47691e-05
1.25984e-05
1.07245e-05
9.11194e-06
7.72874e-06
6.54295e-06
5.52906e-06
4.66765e-06
3.93782e-06
3.31692e-06
2.78743e-06