/*--------------------------------*- C++ -*----------------------------------*\
| =========                 |                                                 |
| \\      /  F ield         | OpenFOAM: The Open Source CFD Toolbox           |
|  \\    /   O peration     | Version:  2.1.x                                 |
|   \\  /    A nd           | Web:      www.OpenFOAM.org                      |
|    \\/     M anipulation  |                                                 |
\*---------------------------------------------------------------------------*/
FoamFile
{
    version     2.0;
    format      ascii;
    class       volScalarField;
    location    "0.001";
    object      k_0;
}
// * * * * * * * * * * * * * * * * * * * * * * * * * * * * * * * * * * * * * //

dimensions      [0 2 -2 0 0 0 0];

internalField   nonuniform List<scalar> 
12225
(
8.98226
9.25552
7.34394
5.48163
4.76774
4.61615
4.77055
4.97468
4.83812
5.59891
4.84598
5.73122
6.32862
5.83788
6.15739
9.41718
9.88846
7.09284
2.36592
4.98591
5.49168
5.25836
4.88013
4.37463
4.23835
3.98916
3.96396
4.03519
3.70702
3.85098
3.86582
3.66514
3.40562
3.49163
3.56356
3.53655
0.194784
1.1448
1.84759
2.17393
2.10278
1.86256
1.4885
1.3602
1.23019
1.04941
1.12494
0.901497
0.854664
0.994152
0.783415
0.552785
0.709587
0.698275
0.0100424
0.120324
0.378713
0.472458
0.447964
0.358413
0.223739
0.170673
0.117188
0.0934508
0.0937208
0.0689277
0.0724597
0.0967377
0.0652479
0.0478549
0.0726726
0.0682259
0.000419826
0.00905399
0.0441253
0.0567249
0.0506149
0.0302759
0.0138004
0.0068442
0.00364125
0.0022487
0.00194325
0.00138146
0.00154125
0.00165722
0.00154519
0.00207945
0.00229896
0.00450865
3.93563e-05
0.00052372
0.00324886
0.00414703
0.00349913
0.00163243
0.000648826
0.000302656
0.000153899
7.48785e-05
8.00099e-05
6.67354e-05
5.2738e-05
0.000130298
0.000330481
0.000277913
0.000421915
0.00113531
2.29594e-05
5.48963e-05
0.00021705
0.000303793
0.000285426
0.000220946
0.000189056
0.000144925
9.86385e-05
8.14847e-05
4.14773e-05
3.53711e-05
6.83378e-05
8.58249e-05
7.1588e-05
0.000137764
0.0007314
0.00122352
2.92153e-05
3.17468e-05
3.98499e-05
5.87897e-05
8.74403e-05
9.33756e-05
9.31602e-05
9.08635e-05
8.26419e-05
4.56838e-05
3.40358e-05
3.13928e-05
1.86481e-05
2.27924e-05
8.53546e-05
8.37683e-05
8.38667e-05
0.000308716
2.48975e-05
2.56215e-05
3.66756e-05
6.439e-05
8.68861e-05
9.36188e-05
9.55097e-05
9.4793e-05
8.07692e-05
5.83744e-05
3.48217e-05
1.97642e-05
2.28581e-05
3.07643e-05
2.62113e-05
3.24038e-05
8.94025e-05
0.000557867
2.17956e-05
2.35218e-05
3.39006e-05
5.86885e-05
8.78682e-05
0.000104494
0.000110702
0.000109933
0.000101299
6.52874e-05
3.74888e-05
3.07142e-05
1.78925e-05
1.50168e-05
2.70138e-05
5.39173e-05
6.02266e-05
9.04169e-05
2.04962e-05
2.22009e-05
2.96738e-05
4.60781e-05
9.76908e-05
0.000136797
0.000148183
0.00014686
0.000128009
8.04062e-05
4.90992e-05
2.57669e-05
1.93834e-05
2.10321e-05
2.01552e-05
1.97129e-05
2.61136e-05
0.0001875
2.19277e-05
2.28624e-05
2.74321e-05
4.61747e-05
0.000110041
0.000150499
0.000163407
0.000161066
0.000139169
8.57683e-05
4.86907e-05
2.94231e-05
1.95277e-05
1.54207e-05
1.61442e-05
2.44577e-05
3.7275e-05
4.33697e-05
2.07162e-05
2.16692e-05
2.67643e-05
3.93672e-05
8.28931e-05
0.000128139
0.000149438
0.000150668
0.000137214
8.89954e-05
5.13282e-05
2.87621e-05
1.77609e-05
1.55476e-05
1.55827e-05
1.58365e-05
1.76868e-05
4.63274e-05
2.27259e-05
2.41205e-05
2.96615e-05
4.53549e-05
0.000101545
0.000152902
0.000175013
0.000174853
0.000154085
9.4229e-05
5.24624e-05
2.89294e-05
1.7166e-05
1.28675e-05
1.24819e-05
1.34529e-05
1.73238e-05
1.98083e-05
2.06793e-05
2.23319e-05
3.08854e-05
4.63567e-05
9.36676e-05
0.000146063
0.000168489
0.000169897
0.000155342
9.98612e-05
5.48814e-05
2.95646e-05
1.65843e-05
1.14664e-05
1.04532e-05
1.06315e-05
1.17042e-05
1.67209e-05
2.03615e-05
2.2455e-05
2.98262e-05
4.43101e-05
0.000104666
0.000196973
0.00023091
0.000230981
0.000202594
0.000121035
6.4527e-05
3.3438e-05
1.77329e-05
1.08799e-05
8.81011e-06
8.73375e-06
9.27258e-06
1.12546e-05
2.31421e-05
2.49784e-05
3.01781e-05
4.94531e-05
0.000138479
0.000220233
0.000245425
0.000241581
0.000200841
0.00011359
5.88831e-05
2.94685e-05
1.49045e-05
8.5474e-06
6.47501e-06
6.28927e-06
6.58861e-06
8.0174e-06
2.17599e-05
2.35826e-05
2.9908e-05
5.35094e-05
0.000139627
0.000202802
0.000219426
0.000214451
0.000174318
9.7478e-05
4.9866e-05
2.44933e-05
1.20608e-05
6.58515e-06
4.65151e-06
4.36725e-06
4.50767e-06
5.26016e-06
2.09816e-05
2.19863e-05
2.64616e-05
4.34754e-05
0.000111771
0.000167629
0.000184044
0.000180589
0.000147641
8.21003e-05
4.15399e-05
2.01202e-05
9.73657e-06
5.14411e-06
3.43741e-06
3.11489e-06
3.17468e-06
3.57394e-06
2.24313e-05
2.27574e-05
2.86578e-05
3.79254e-05
8.10041e-05
0.000144914
0.00016479
0.000163645
0.000139012
7.87683e-05
3.97138e-05
1.90553e-05
9.10527e-06
4.69553e-06
2.98043e-06
2.57325e-06
2.58331e-06
2.80602e-06
2.06104e-05
2.32234e-05
3.45616e-05
4.78645e-05
9.45078e-05
0.000154862
0.000172433
0.00017069
0.000143471
8.09237e-05
4.08284e-05
1.95462e-05
9.30183e-06
4.72827e-06
2.88061e-06
2.35432e-06
2.31632e-06
2.42237e-06
2.07182e-05
2.25547e-05
2.864e-05
4.40878e-05
9.9327e-05
0.000136061
0.00014357
0.000139905
0.000112106
6.275e-05
3.20707e-05
1.56741e-05
7.65751e-06
4.00871e-06
2.50924e-06
2.07561e-06
2.04149e-06
2.12128e-06
2.27576e-05
2.35118e-05
2.68333e-05
3.72964e-05
7.93163e-05
0.000115901
0.00012432
0.000122079
0.000101434
5.79707e-05
2.99046e-05
1.47079e-05
7.23094e-06
3.79951e-06
2.36234e-06
1.91721e-06
1.86549e-06
1.91557e-06
2.19654e-05
2.33345e-05
3.40331e-05
5.89368e-05
0.000106017
0.000128111
0.00012921
0.000124286
9.89299e-05
5.64412e-05
2.92383e-05
1.44425e-05
7.132e-06
3.75631e-06
2.32206e-06
1.85246e-06
1.78239e-06
1.81382e-06
2.12587e-05
3.38871e-05
0.000135698
0.000392279
0.000421196
0.000380239
0.000280644
0.000185526
0.000112881
6.30841e-05
3.31058e-05
1.7034e-05
9.25485e-06
5.67604e-06
4.1241e-06
3.55563e-06
3.43713e-06
3.34183e-06
2.74149e-05
0.000444821
0.00356689
0.00788139
0.0075973
0.00581767
0.00297874
0.00143734
0.000719596
0.000384972
0.000232084
0.000154909
0.000121342
0.000101328
8.86028e-05
7.98115e-05
7.4903e-05
6.53417e-05
0.000388196
0.0125946
0.0677442
0.118701
0.114644
0.0920997
0.0530744
0.0300574
0.0183383
0.0120544
0.00879309
0.00674992
0.00572905
0.00489709
0.00424536
0.00378012
0.00335281
0.00286113
0.0194759
0.250703
0.762633
1.00569
0.983078
0.865725
0.647415
0.485201
0.38001
0.310483
0.26516
0.230433
0.204908
0.183846
0.162854
0.148864
0.13097
0.120636
0.598248
2.9916
4.18455
4.30053
4.13573
3.711
3.24013
2.94219
2.7253
2.5302
2.3618
2.20821
2.07753
1.95162
1.82645
1.72855
1.59964
1.52456
6.83705
9.97158
9.06472
7.22776
6.077
5.59397
5.45954
5.39851
5.28727
5.15239
5.02683
4.91031
4.80273
4.67357
4.58938
4.43577
4.37023
4.23234
3.78589e-05
2.80915e-05
3.42802e-05
5.02891e-05
7.72966e-05
0.000119624
0.000183765
0.000277451
0.000409943
0.000591988
0.000835865
0.0011554
0.00156579
0.00208362
0.00272657
0.00351337
0.00446381
0.00559787
0.00693627
0.00850002
0.0103096
0.0123845
0.0147443
0.017408
0.0203926
0.0237123
0.0273816
0.0314116
0.0358131
0.0405932
0.045757
0.0513038
0.0572328
0.0635487
0.0702473
0.0773118
0.0847325
0.0925093
0.100632
0.109072
0.11781
0.126845
0.136164
0.145731
0.15552
0.165526
0.175741
0.186132
0.196664
0.207326
0.218119
0.229018
0.239988
0.251009
0.262083
0.273202
0.284336
0.295462
0.306575
0.317676
0.328751
0.339779
0.350748
0.361661
0.372516
0.3833
0.394
0.404613
0.415145
0.425592
0.435945
0.446201
0.456361
0.466428
0.476401
0.486275
0.496052
0.505738
0.515334
0.524837
0.534247
0.543569
0.552812
0.561981
0.571072
0.580081
0.589003
0.597846
0.606619
0.615326
0.623966
0.632542
0.641065
0.649542
0.657976
0.66637
0.67473
0.683062
0.691375
0.699675
0.707961
0.716234
0.724498
0.732758
0.741023
0.749297
0.75758
0.765873
0.774177
0.782499
0.790845
0.79922
0.807623
0.816058
0.824525
0.833028
0.841571
0.850158
0.858791
0.867474
0.876207
0.884994
0.893834
0.902731
0.911688
0.920709
0.929798
0.938955
0.948182
0.957479
0.966846
0.976288
0.985808
0.99541
1.00509
1.01486
1.02471
1.03464
1.04466
1.05477
1.06497
1.07526
1.08564
1.09612
1.10669
1.11735
1.12812
1.13898
1.14994
1.161
1.17216
1.18343
1.19479
1.20625
1.2178
1.22946
1.24121
1.25305
1.26498
1.27699
1.28907
1.3012
1.31338
1.32558
1.33778
1.34994
1.36201
1.37392
1.3856
1.39693
1.40776
1.41786
1.42696
1.43448
1.44019
1.44186
1.44035
1.4274
1.4113
1.36195
0.000364293
6.06593e-05
2.57611e-05
2.3363e-05
2.32503e-05
2.32947e-05
2.33709e-05
2.34901e-05
2.36559e-05
2.3916e-05
2.43255e-05
2.49467e-05
2.58453e-05
2.70947e-05
2.87792e-05
3.09883e-05
3.38159e-05
3.73635e-05
4.17459e-05
4.70759e-05
5.34703e-05
6.10666e-05
7.00146e-05
8.04574e-05
9.25459e-05
0.000106452
0.000122364
0.000140449
0.000160897
0.000183909
0.000209674
0.000238356
0.000270147
0.000305277
0.000343911
0.000386149
0.00043216
0.000482155
0.000536268
0.000594512
0.000656966
0.000723822
0.000795181
0.000870947
0.000951086
0.00103571
0.00112493
0.0012186
0.00131654
0.00141875
0.00152533
0.00163618
0.00175102
0.00186972
0.00199229
0.00211877
0.00224886
0.00238233
0.00251908
0.00265917
0.00280244
0.00294864
0.00309759
0.00324926
0.00340364
0.00356056
0.0037198
0.00388126
0.00404495
0.00421083
0.00437874
0.00454856
0.00472024
0.00489382
0.00506922
0.00524637
0.00542519
0.00560575
0.00578806
0.00597204
0.00615763
0.00634487
0.00653387
0.00672473
0.0069174
0.00711151
0.0073188
0.00754251
0.00777964
0.00802799
0.00828558
0.00855124
0.00882393
0.00910333
0.0093872
0.00967327
0.0099606
0.0102492
0.0105394
0.0108312
0.0111237
0.0114168
0.0117108
0.0120068
0.0123054
0.0126065
0.0129095
0.0132145
0.0135217
0.013832
0.014146
0.0144637
0.0147849
0.0151098
0.0154384
0.0157713
0.0161088
0.0164513
0.016799
0.0171522
0.0175108
0.0178751
0.018245
0.0186211
0.0190036
0.0193933
0.0197902
0.0201947
0.0206065
0.021026
0.0214535
0.0218894
0.0223343
0.0227884
0.023252
0.0237252
0.0242081
0.0247011
0.0252048
0.0257194
0.0262454
0.026783
0.0273324
0.0278939
0.0284678
0.0290547
0.0296551
0.0302694
0.0308981
0.0315414
0.0321996
0.0328733
0.0335626
0.0342684
0.0349911
0.0357314
0.03649
0.0372671
0.0380638
0.0388804
0.0397177
0.0405767
0.0414579
0.0423624
0.0432919
0.0442469
0.0452292
0.0462413
0.0472845
0.0483638
0.0494833
0.0506492
0.0518884
0.0531524
0.0547567
0.0557676
0.0593042
0.0593906
0.0713301
0.0913082
0.00183954
0.000207235
3.77164e-05
2.50247e-05
2.40054e-05
2.38268e-05
2.36457e-05
2.33913e-05
2.30714e-05
2.26839e-05
2.22267e-05
2.16994e-05
2.11027e-05
2.04397e-05
1.9718e-05
1.89441e-05
1.81227e-05
1.72638e-05
1.63774e-05
1.54647e-05
1.45347e-05
1.36106e-05
1.27021e-05
1.17982e-05
1.09056e-05
1.0056e-05
9.25595e-06
8.48377e-06
7.74514e-06
7.06625e-06
6.44803e-06
5.87229e-06
5.34292e-06
4.87667e-06
4.47151e-06
4.11448e-06
3.80441e-06
3.54894e-06
3.33323e-06
3.15855e-06
3.04262e-06
2.96915e-06
2.93017e-06
2.92108e-06
2.93801e-06
2.98291e-06
3.05401e-06
3.14925e-06
3.26621e-06
3.40328e-06
3.55942e-06
3.73362e-06
3.92465e-06
4.13124e-06
4.3527e-06
4.5888e-06
4.83899e-06
5.1026e-06
5.37896e-06
5.66794e-06
5.96939e-06
6.28301e-06
6.60826e-06
6.9449e-06
7.29287e-06
7.65209e-06
8.02219e-06
8.40282e-06
8.79396e-06
9.19564e-06
9.60767e-06
1.00298e-05
1.04619e-05
1.09041e-05
1.13563e-05
1.18184e-05
1.22903e-05
1.27723e-05
1.32643e-05
1.37663e-05
1.42783e-05
1.48005e-05
1.5333e-05
1.58765e-05
1.64308e-05
1.69956e-05
1.75741e-05
1.8179e-05
1.88181e-05
1.94936e-05
2.02807e-05
2.13509e-05
2.26246e-05
2.40536e-05
2.55833e-05
2.71687e-05
2.87866e-05
3.04286e-05
3.20918e-05
3.37706e-05
3.54584e-05
3.71531e-05
3.88589e-05
4.05819e-05
4.23244e-05
4.40835e-05
4.5854e-05
4.7636e-05
4.94337e-05
5.1253e-05
5.30976e-05
5.49666e-05
5.6858e-05
5.8772e-05
6.07105e-05
6.26775e-05
6.46772e-05
6.67128e-05
6.87863e-05
7.08988e-05
7.305e-05
7.52398e-05
7.74704e-05
7.97468e-05
8.20746e-05
8.44583e-05
8.68993e-05
8.93975e-05
9.19533e-05
9.45708e-05
9.72549e-05
0.000100011
0.000102843
0.000105755
0.000108747
0.000111823
0.000114985
0.000118241
0.000121595
0.000125051
0.000128614
0.000132285
0.000136069
0.00013997
0.000143993
0.000148147
0.000152442
0.000156882
0.000161472
0.000166218
0.000171127
0.000176205
0.000181461
0.000186911
0.000192562
0.000198429
0.000204528
0.000210868
0.000217478
0.000224377
0.000231589
0.000239157
0.000247112
0.000255502
0.000264408
0.000273897
0.000284081
0.000295127
0.000307198
0.000320614
0.000335759
0.000353181
0.000374147
0.000398573
0.000435238
0.000465656
0.000574069
0.000618279
0.00100997
0.00209133
0.00607117
0.000607973
6.87166e-05
2.88388e-05
2.56525e-05
2.53149e-05
2.51375e-05
2.4901e-05
2.45853e-05
2.41877e-05
2.37086e-05
2.31489e-05
2.25086e-05
2.17917e-05
2.10109e-05
2.01717e-05
1.92692e-05
1.83157e-05
1.73391e-05
1.63431e-05
1.53184e-05
1.4284e-05
1.3269e-05
1.22703e-05
1.12817e-05
1.03237e-05
9.41068e-06
8.53791e-06
7.7101e-06
6.93751e-06
6.21432e-06
5.53812e-06
4.9198e-06
4.36017e-06
3.8456e-06
3.37257e-06
2.94999e-06
2.57726e-06
2.24226e-06
1.93938e-06
1.67251e-06
1.44185e-06
1.23984e-06
1.06044e-06
9.03549e-07
7.6945e-07
6.5476e-07
5.55151e-07
4.68777e-07
3.95269e-07
3.3338e-07
2.80811e-07
2.35896e-07
1.97842e-07
1.66028e-07
1.39522e-07
1.17333e-07
9.87477e-08
8.32984e-08
7.05721e-08
6.01314e-08
5.15694e-08
4.45674e-08
3.88822e-08
3.4323e-08
3.05534e-08
2.75396e-08
2.53435e-08
2.3745e-08
2.25214e-08
2.16202e-08
2.09882e-08
2.05791e-08
2.03559e-08
2.02877e-08
2.03422e-08
2.05118e-08
2.07781e-08
2.1125e-08
2.15421e-08
2.20205e-08
2.25528e-08
2.3132e-08
2.37537e-08
2.44145e-08
2.5112e-08
2.58438e-08
2.66132e-08
2.74253e-08
2.8296e-08
2.92276e-08
3.02953e-08
3.24352e-08
3.57222e-08
3.97345e-08
4.41705e-08
4.88739e-08
5.37764e-08
5.88432e-08
6.40403e-08
6.93385e-08
7.47267e-08
8.02142e-08
8.58114e-08
9.15141e-08
9.73009e-08
1.03146e-07
1.09046e-07
1.15014e-07
1.2107e-07
1.27219e-07
1.33453e-07
1.39757e-07
1.46124e-07
1.52559e-07
1.59076e-07
1.65696e-07
1.72431e-07
1.79285e-07
1.86254e-07
1.93326e-07
2.00497e-07
2.0778e-07
2.15203e-07
2.22793e-07
2.30562e-07
2.38503e-07
2.46606e-07
2.54874e-07
2.63329e-07
2.71999e-07
2.80911e-07
2.9007e-07
2.99485e-07
3.09156e-07
3.19091e-07
3.29313e-07
3.39853e-07
3.50739e-07
3.6198e-07
3.73579e-07
3.85545e-07
3.97891e-07
4.10638e-07
4.23809e-07
4.37452e-07
4.51617e-07
4.66323e-07
4.81573e-07
4.97399e-07
5.13836e-07
5.30905e-07
5.48665e-07
5.67211e-07
5.86589e-07
6.06872e-07
6.2816e-07
6.50523e-07
6.74154e-07
6.99217e-07
7.25898e-07
7.54541e-07
7.85433e-07
8.18991e-07
8.55941e-07
8.97007e-07
9.43261e-07
9.96453e-07
1.05843e-06
1.13264e-06
1.22373e-06
1.33848e-06
1.49165e-06
1.69023e-06
2.02607e-06
2.36205e-06
3.57986e-06
4.49868e-06
1.01245e-05
3.77333e-05
0.0152849
0.00148684
0.000134276
3.60302e-05
2.81092e-05
2.73921e-05
2.71929e-05
2.69588e-05
2.66402e-05
2.62282e-05
2.57205e-05
2.51205e-05
2.44298e-05
2.36479e-05
2.27868e-05
2.18602e-05
2.0866e-05
1.98115e-05
1.8724e-05
1.76127e-05
1.64746e-05
1.53355e-05
1.42182e-05
1.31096e-05
1.20154e-05
1.09751e-05
9.99202e-06
9.04051e-06
8.13107e-06
7.29296e-06
6.52386e-06
5.80602e-06
5.13979e-06
4.53394e-06
3.98791e-06
3.49558e-06
3.05229e-06
2.65451e-06
2.30009e-06
1.98801e-06
1.71465e-06
1.47361e-06
1.26067e-06
1.07538e-06
9.16536e-07
7.79672e-07
6.60327e-07
5.56941e-07
4.69135e-07
3.95053e-07
3.31792e-07
2.77429e-07
2.31281e-07
1.92703e-07
1.60451e-07
1.33214e-07
1.10182e-07
9.09289e-08
7.49955e-08
6.17841e-08
5.07655e-08
4.1587e-08
3.40023e-08
2.77728e-08
2.26554e-08
1.84412e-08
1.49751e-08
1.2137e-08
9.82284e-09
7.93946e-09
6.40769e-09
5.16279e-09
4.15219e-09
3.33371e-09
2.67318e-09
2.14204e-09
1.71558e-09
1.37291e-09
1.09755e-09
8.77023e-10
7.01313e-10
5.61787e-10
4.51043e-10
3.63121e-10
2.93472e-10
2.38581e-10
1.9553e-10
1.61834e-10
1.35502e-10
1.15083e-10
9.87833e-11
8.64134e-11
7.85018e-11
7.58331e-11
7.69517e-11
8.14148e-11
8.81687e-11
9.66246e-11
1.06427e-10
1.1731e-10
1.29093e-10
1.41675e-10
1.5502e-10
1.69088e-10
1.83807e-10
1.99068e-10
2.1477e-10
2.30876e-10
2.47408e-10
2.64397e-10
2.81833e-10
2.99665e-10
3.17826e-10
3.36269e-10
3.54987e-10
3.74019e-10
3.93425e-10
4.13239e-10
4.33464e-10
4.54059e-10
4.74947e-10
4.96103e-10
5.17582e-10
5.39496e-10
5.61939e-10
5.8492e-10
6.08385e-10
6.3227e-10
6.56584e-10
6.81421e-10
7.06901e-10
7.33115e-10
7.6007e-10
7.87752e-10
8.16149e-10
8.45286e-10
8.75262e-10
9.0621e-10
9.38231e-10
9.71342e-10
1.00553e-09
1.0408e-09
1.07719e-09
1.11476e-09
1.15362e-09
1.19396e-09
1.23598e-09
1.27975e-09
1.32524e-09
1.37255e-09
1.42181e-09
1.47313e-09
1.52673e-09
1.58305e-09
1.64229e-09
1.70472e-09
1.77081e-09
1.84088e-09
1.9158e-09
1.99647e-09
2.08376e-09
2.17941e-09
2.28506e-09
2.40286e-09
2.53675e-09
2.69107e-09
2.87205e-09
3.09023e-09
3.35795e-09
3.69755e-09
4.1427e-09
4.74565e-09
5.61966e-09
6.87305e-09
9.2064e-09
1.21187e-08
2.2251e-08
3.71925e-08
1.0856e-07
6.79273e-07
0.0321369
0.00315877
0.000257396
4.87214e-05
3.17499e-05
3.02937e-05
3.00598e-05
2.98398e-05
2.95266e-05
2.91051e-05
2.85682e-05
2.79169e-05
2.71545e-05
2.62798e-05
2.53076e-05
2.42542e-05
2.31128e-05
2.18965e-05
2.06523e-05
1.93891e-05
1.8085e-05
1.67713e-05
1.54943e-05
1.42464e-05
1.30218e-05
1.18475e-05
1.07318e-05
9.67099e-06
8.68053e-06
7.76637e-06
6.91319e-06
6.11989e-06
5.40209e-06
4.7592e-06
4.17426e-06
3.64119e-06
3.16622e-06
2.74933e-06
2.38058e-06
2.05183e-06
1.76153e-06
1.50907e-06
1.29071e-06
1.1011e-06
9.35927e-07
7.92753e-07
6.70032e-07
5.65639e-07
4.76646e-07
4.00293e-07
3.34953e-07
2.7976e-07
2.33551e-07
1.94686e-07
1.61724e-07
1.33865e-07
1.10641e-07
9.14307e-08
7.54474e-08
6.20556e-08
5.08755e-08
4.16468e-08
3.40797e-08
2.78504e-08
2.26975e-08
1.84472e-08
1.49668e-08
1.21303e-08
9.81795e-09
7.93005e-09
6.39151e-09
5.14194e-09
4.12962e-09
3.31062e-09
2.64941e-09
2.1171e-09
1.68928e-09
1.34548e-09
1.06923e-09
8.47913e-10
6.71369e-10
5.30976e-10
4.19335e-10
3.30506e-10
2.59932e-10
2.0407e-10
1.59977e-10
1.25226e-10
9.78398e-11
7.63053e-11
5.94178e-11
4.62274e-11
3.59088e-11
2.78394e-11
2.15539e-11
1.66736e-11
1.29026e-11
9.99791e-12
7.75815e-12
6.02931e-12
4.69946e-12
3.68488e-12
2.91745e-12
2.34075e-12
1.90939e-12
1.58916e-12
1.35491e-12
1.18766e-12
1.06622e-12
9.92463e-13
9.49482e-13
9.27816e-13
9.22719e-13
9.30287e-13
9.48327e-13
9.74604e-13
1.00742e-12
1.04571e-12
1.08863e-12
1.13532e-12
1.18486e-12
1.23669e-12
1.29064e-12
1.34689e-12
1.4056e-12
1.46661e-12
1.52957e-12
1.5941e-12
1.66017e-12
1.72806e-12
1.79817e-12
1.87073e-12
1.94565e-12
2.02276e-12
2.10196e-12
2.18335e-12
2.2673e-12
2.35426e-12
2.44454e-12
2.53811e-12
2.6349e-12
2.7348e-12
2.83791e-12
2.94448e-12
3.05492e-12
3.16983e-12
3.28992e-12
3.41543e-12
3.54623e-12
3.68252e-12
3.8248e-12
3.97347e-12
4.12936e-12
4.29412e-12
4.46859e-12
4.6537e-12
4.8513e-12
5.06273e-12
5.29138e-12
5.54139e-12
5.81659e-12
6.12471e-12
6.47407e-12
6.87555e-12
7.34918e-12
7.92048e-12
8.62763e-12
9.53819e-12
1.07483e-11
1.24421e-11
1.49491e-11
1.89309e-11
2.59007e-11
4.01601e-11
7.69034e-11
1.81555e-10
5.04364e-10
1.74004e-09
5.50939e-09
3.20937e-08
0.0594465
0.00603617
0.00047081
6.99369e-05
3.70613e-05
3.42752e-05
3.3989e-05
3.38154e-05
3.35352e-05
3.31182e-05
3.25521e-05
3.18395e-05
3.09842e-05
2.9975e-05
2.88297e-05
2.75885e-05
2.6247e-05
2.48064e-05
2.33192e-05
2.18088e-05
2.02662e-05
1.87297e-05
1.72331e-05
1.5763e-05
1.43344e-05
1.2987e-05
1.17188e-05
1.05145e-05
9.38681e-06
8.35029e-06
7.40153e-06
6.53524e-06
5.74836e-06
5.03504e-06
4.39224e-06
3.82146e-06
3.31835e-06
2.87125e-06
2.4726e-06
2.12258e-06
1.82015e-06
1.55814e-06
1.32866e-06
1.12831e-06
9.56119e-07
8.09524e-07
6.84203e-07
5.76348e-07
4.83796e-07
4.0525e-07
3.39157e-07
2.83512e-07
2.36376e-07
1.96387e-07
1.62746e-07
1.34758e-07
1.11531e-07
9.21223e-08
7.58273e-08
6.22305e-08
5.10213e-08
4.18243e-08
3.42317e-08
2.79306e-08
2.27228e-08
1.84602e-08
1.49903e-08
1.21568e-08
9.83381e-09
7.93425e-09
6.39089e-09
5.14224e-09
4.13144e-09
3.31218e-09
2.64976e-09
2.11653e-09
1.68843e-09
1.34468e-09
1.06854e-09
8.47324e-10
6.70936e-10
5.30653e-10
4.19063e-10
3.30218e-10
2.59632e-10
2.03779e-10
1.59733e-10
1.25042e-10
9.77045e-11
7.61879e-11
5.93073e-11
4.61088e-11
3.57972e-11
2.77416e-11
2.14597e-11
1.65728e-11
1.27843e-11
9.85348e-12
7.58509e-12
5.82846e-12
4.47045e-12
3.42432e-12
2.62104e-12
2.00522e-12
1.53344e-12
1.17227e-12
8.9642e-13
6.85937e-13
5.25069e-13
4.01824e-13
3.07443e-13
2.35461e-13
1.80883e-13
1.39593e-13
1.08225e-13
8.41891e-14
6.57032e-14
5.15516e-14
4.08312e-14
3.2768e-14
2.66854e-14
2.20516e-14
1.84865e-14
1.57384e-14
1.36313e-14
1.20283e-14
1.08077e-14
9.86634e-15
9.18469e-15
8.69123e-15
8.33749e-15
8.0951e-15
7.93698e-15
7.84378e-15
7.80603e-15
7.81828e-15
7.87916e-15
7.98233e-15
8.11867e-15
8.27865e-15
8.45674e-15
8.65301e-15
8.87006e-15
9.10991e-15
9.37157e-15
9.65305e-15
9.95329e-15
1.02716e-14
1.06075e-14
1.09622e-14
1.13374e-14
1.17338e-14
1.21534e-14
1.26026e-14
1.30853e-14
1.36045e-14
1.41697e-14
1.47883e-14
1.5482e-14
1.62804e-14
1.72186e-14
1.83792e-14
1.98717e-14
2.18761e-14
2.48226e-14
2.93907e-14
3.73136e-14
5.31013e-14
8.95816e-14
1.81705e-13
4.25207e-13
1.11194e-12
3.12955e-12
9.37794e-12
2.89462e-11
9.59199e-11
3.04181e-10
1.06739e-09
3.19675e-09
1.05489e-08
0.0998704
0.0106265
0.000818705
0.000103891
4.4774e-05
3.97555e-05
3.94058e-05
3.93437e-05
3.9158e-05
3.87871e-05
3.8203e-05
3.74072e-05
3.64178e-05
3.52207e-05
3.38292e-05
3.22966e-05
3.06297e-05
2.88398e-05
2.7003e-05
2.51443e-05
2.32484e-05
2.13637e-05
1.95396e-05
1.77755e-05
1.6084e-05
1.44861e-05
1.29803e-05
1.15731e-05
1.02826e-05
9.10604e-06
8.02688e-06
7.04216e-06
6.15776e-06
5.37095e-06
4.67095e-06
4.04763e-06
3.49441e-06
3.00724e-06
2.58257e-06
2.21398e-06
1.89263e-06
1.61174e-06
1.36841e-06
1.16042e-06
9.8302e-07
8.30469e-07
6.98945e-07
5.86702e-07
4.92046e-07
4.12328e-07
3.44746e-07
2.87293e-07
2.3876e-07
1.98164e-07
1.64366e-07
1.36147e-07
1.12474e-07
9.26312e-08
7.61282e-08
6.25266e-08
5.13262e-08
4.20483e-08
3.43389e-08
2.79662e-08
2.27518e-08
1.85065e-08
1.50348e-08
1.21796e-08
9.83739e-09
7.93216e-09
6.39246e-09
5.14696e-09
4.13498e-09
3.31287e-09
2.64872e-09
2.11543e-09
1.68783e-09
1.34422e-09
1.06801e-09
8.46858e-10
6.70603e-10
5.30421e-10
4.18805e-10
3.299e-10
2.59299e-10
2.035e-10
1.59554e-10
1.24929e-10
9.7626e-11
7.60968e-11
5.921e-11
4.60154e-11
3.57136e-11
2.76796e-11
2.14236e-11
1.65526e-11
1.2767e-11
9.83483e-12
7.56722e-12
5.81479e-12
4.46127e-12
3.41694e-12
2.61329e-12
1.9968e-12
1.52556e-12
1.16621e-12
8.92226e-13
6.82657e-13
5.2184e-13
3.98385e-13
3.04e-13
2.32384e-13
1.78298e-13
1.37349e-13
1.06027e-13
8.18221e-14
6.31004e-14
4.87612e-14
3.79065e-14
2.97412e-14
2.35607e-14
1.88133e-14
1.51151e-14
1.22192e-14
9.95989e-15
8.20638e-15
6.84373e-15
5.7736e-15
4.92265e-15
4.24204e-15
3.69682e-15
3.25641e-15
2.89411e-15
2.59287e-15
2.34538e-15
2.14702e-15
1.99069e-15
1.86642e-15
1.76317e-15
1.67193e-15
1.58908e-15
1.51645e-15
1.45689e-15
1.41041e-15
1.37341e-15
1.34141e-15
1.31167e-15
1.28365e-15
1.25818e-15
1.23611e-15
1.21725e-15
1.20074e-15
1.18559e-15
1.17243e-15
1.16151e-15
1.15382e-15
1.15115e-15
1.15358e-15
1.16757e-15
1.2063e-15
1.28178e-15
1.43231e-15
1.71657e-15
2.23929e-15
3.30143e-15
5.56799e-15
1.06973e-14
2.30613e-14
5.4458e-14
1.37831e-13
3.67072e-13
1.01914e-12
2.92269e-12
8.69206e-12
2.6306e-11
8.30834e-11
2.54555e-10
8.06678e-10
2.35672e-09
6.53811e-09
0.155495
0.017503
0.00135537
0.000155938
5.59298e-05
4.74106e-05
4.70441e-05
4.72328e-05
4.72696e-05
4.70342e-05
4.64619e-05
4.55661e-05
4.437e-05
4.28562e-05
4.10546e-05
3.90587e-05
3.68946e-05
3.45703e-05
3.21684e-05
2.97431e-05
2.73182e-05
2.49469e-05
2.26556e-05
2.04505e-05
1.8361e-05
1.64129e-05
1.46073e-05
1.29427e-05
1.14194e-05
1.00334e-05
8.7821e-06
7.66404e-06
6.66984e-06
5.78438e-06
4.99743e-06
4.30468e-06
3.70046e-06
3.17473e-06
2.71629e-06
2.3164e-06
1.9697e-06
1.67204e-06
1.41781e-06
1.19989e-06
1.01212e-06
8.51073e-07
7.14641e-07
5.99846e-07
5.02751e-07
4.20041e-07
3.49809e-07
2.90873e-07
2.41784e-07
2.00775e-07
1.66315e-07
1.37359e-07
1.1319e-07
9.31822e-08
7.66647e-08
6.29876e-08
5.16237e-08
4.21895e-08
3.44052e-08
2.80343e-08
2.28359e-08
1.85746e-08
1.50661e-08
1.21842e-08
9.8361e-09
7.93734e-09
6.40171e-09
5.15311e-09
4.13584e-09
3.31081e-09
2.64703e-09
2.11512e-09
1.68797e-09
1.34398e-09
1.0674e-09
8.46231e-10
6.70197e-10
5.30121e-10
4.18467e-10
3.29496e-10
2.58924e-10
2.03247e-10
1.5942e-10
1.24847e-10
9.75359e-11
7.59712e-11
5.90745e-11
4.58912e-11
3.56052e-11
2.76052e-11
2.13789e-11
1.65186e-11
1.27353e-11
9.80591e-12
7.54565e-12
5.80142e-12
4.45256e-12
3.40947e-12
2.60554e-12
1.98952e-12
1.5198e-12
1.16228e-12
8.89393e-13
6.79913e-13
5.18777e-13
3.95313e-13
3.01459e-13
2.30643e-13
1.77293e-13
1.36765e-13
1.05556e-13
8.13441e-14
6.26291e-14
4.83515e-14
3.75905e-14
2.9511e-14
2.33854e-14
1.86574e-14
1.49594e-14
1.20642e-14
9.81939e-15
8.09358e-15
6.76347e-15
5.72127e-15
4.88889e-15
4.21678e-15
3.67169e-15
3.2273e-15
2.86132e-15
2.55984e-15
2.31523e-15
2.12092e-15
1.9676e-15
1.844e-15
1.739e-15
1.64506e-15
1.56094e-15
1.48972e-15
1.43318e-15
1.38961e-15
1.35439e-15
1.32229e-15
1.2911e-15
1.26155e-15
1.23576e-15
1.21444e-15
1.19679e-15
1.18168e-15
1.16796e-15
1.15613e-15
1.14652e-15
1.14031e-15
1.13939e-15
1.14332e-15
1.15979e-15
1.20189e-15
1.28671e-15
1.44849e-15
1.75174e-15
2.30088e-15
3.40745e-15
5.74902e-15
1.10066e-14
2.35745e-14
5.52001e-14
1.38308e-13
3.6403e-13
9.96247e-13
2.80852e-12
8.15109e-12
2.40101e-11
7.23458e-11
2.13978e-10
6.27522e-10
1.76306e-09
4.52503e-09
0.227342
0.027214
0.00213412
0.000231518
7.20293e-05
5.84941e-05
5.83305e-05
5.90591e-05
5.95994e-05
5.96583e-05
5.91667e-05
5.80692e-05
5.64943e-05
5.44376e-05
5.19359e-05
4.91266e-05
4.60795e-05
4.28485e-05
3.95474e-05
3.62528e-05
3.30021e-05
2.98517e-05
2.6844e-05
2.40089e-05
2.13688e-05
1.89315e-05
1.66962e-05
1.46619e-05
1.28267e-05
1.1185e-05
9.72417e-06
8.42571e-06
7.27483e-06
6.26297e-06
5.38102e-06
4.61423e-06
3.94632e-06
3.36504e-06
2.86214e-06
2.43012e-06
2.0605e-06
1.74415e-06
1.4728e-06
1.24019e-06
1.04217e-06
8.75032e-07
7.34201e-07
6.14763e-07
5.13091e-07
4.27158e-07
3.55382e-07
2.95642e-07
2.45565e-07
2.03339e-07
1.67887e-07
1.38444e-07
1.14149e-07
9.40368e-08
7.72929e-08
6.33539e-08
5.18128e-08
4.23203e-08
3.4545e-08
2.81709e-08
2.29291e-08
1.86157e-08
1.50756e-08
1.2189e-08
9.84905e-09
7.95332e-09
6.4114e-09
5.1543e-09
4.13257e-09
3.30837e-09
2.64703e-09
2.11604e-09
1.68821e-09
1.34322e-09
1.0663e-09
8.45391e-10
6.6969e-10
5.29733e-10
4.18012e-10
3.29031e-10
2.58561e-10
2.03046e-10
1.59319e-10
1.24758e-10
9.73875e-11
7.57948e-11
5.89012e-11
4.57658e-11
3.5531e-11
2.75572e-11
2.13365e-11
1.64733e-11
1.26902e-11
9.76898e-12
7.52065e-12
5.78614e-12
4.44209e-12
3.40027e-12
2.59728e-12
1.98339e-12
1.51602e-12
1.15974e-12
8.86538e-13
6.76233e-13
5.1475e-13
3.91722e-13
2.988e-13
2.28912e-13
1.76131e-13
1.35806e-13
1.04659e-13
8.05397e-14
6.20071e-14
4.794e-14
3.73483e-14
2.93639e-14
2.32606e-14
1.85132e-14
1.47906e-14
1.18903e-14
9.66577e-15
7.9761e-15
6.68499e-15
5.67379e-15
4.85919e-15
4.19238e-15
3.64569e-15
3.19896e-15
2.8343e-15
2.53786e-15
2.29961e-15
2.11081e-15
1.96041e-15
1.83635e-15
1.72878e-15
1.63253e-15
1.54878e-15
1.48073e-15
1.42844e-15
1.38863e-15
1.3557e-15
1.32413e-15
1.29219e-15
1.26217e-15
1.23722e-15
1.21787e-15
1.20277e-15
1.19045e-15
1.17963e-15
1.17051e-15
1.16373e-15
1.16086e-15
1.16202e-15
1.17e-15
1.19278e-15
1.24444e-15
1.34098e-15
1.51787e-15
1.84654e-15
2.43134e-15
3.58692e-15
6.01757e-15
1.14239e-14
2.42195e-14
5.60898e-14
1.3888e-13
3.60762e-13
9.72315e-13
2.69295e-12
7.62824e-12
2.18785e-11
6.32204e-11
1.8079e-10
4.98347e-10
1.348e-09
3.33494e-09
0.314716
0.0400544
0.00317
0.000333199
9.62271e-05
7.64545e-05
7.68945e-05
7.86778e-05
8.01197e-05
8.06351e-05
8.02089e-05
7.8642e-05
7.61953e-05
7.29743e-05
6.90743e-05
6.47159e-05
6.00775e-05
5.52603e-05
5.03956e-05
4.56195e-05
4.10269e-05
3.66683e-05
3.25826e-05
2.88018e-05
2.53364e-05
2.21917e-05
1.93657e-05
1.68397e-05
1.4592e-05
1.26053e-05
1.08576e-05
9.32554e-06
7.99109e-06
6.83601e-06
5.83593e-06
4.96813e-06
4.21848e-06
3.57684e-06
3.02999e-06
2.5625e-06
2.16202e-06
1.82014e-06
1.52996e-06
1.28462e-06
1.07749e-06
9.02434e-07
7.54233e-07
6.28894e-07
5.23553e-07
4.35643e-07
3.62303e-07
3.00732e-07
2.48882e-07
2.05502e-07
1.696e-07
1.39977e-07
1.15374e-07
9.48324e-08
7.77332e-08
6.3623e-08
5.20551e-08
4.25639e-08
3.47391e-08
2.82844e-08
2.29784e-08
1.86352e-08
1.5095e-08
1.22158e-08
9.87363e-09
7.96672e-09
6.41314e-09
5.15054e-09
4.12995e-09
3.30889e-09
2.64877e-09
2.11682e-09
1.68733e-09
1.34154e-09
1.06485e-09
8.44536e-10
6.69179e-10
5.29217e-10
4.17424e-10
3.28494e-10
2.58213e-10
2.02881e-10
1.59185e-10
1.24595e-10
9.71594e-11
7.55688e-11
5.87659e-11
4.56758e-11
3.5461e-11
2.75084e-11
2.12898e-11
1.6418e-11
1.26363e-11
9.72881e-12
7.49517e-12
5.76863e-12
4.42715e-12
3.38732e-12
2.5882e-12
1.97837e-12
1.51347e-12
1.15723e-12
8.82788e-13
6.71564e-13
5.10297e-13
3.88345e-13
2.96555e-13
2.27313e-13
1.74675e-13
1.34321e-13
1.03272e-13
7.94567e-14
6.13071e-14
4.75654e-14
3.71746e-14
2.92577e-14
2.31363e-14
1.8347e-14
1.45973e-14
1.17006e-14
9.50571e-15
7.8589e-15
6.60733e-15
5.62217e-15
4.81745e-15
4.15011e-15
3.60161e-15
3.15733e-15
2.80041e-15
2.51418e-15
2.28555e-15
2.10285e-15
1.95362e-15
1.82697e-15
1.71586e-15
1.61804e-15
1.53602e-15
1.47204e-15
1.42428e-15
1.38787e-15
1.3565e-15
1.32487e-15
1.2922e-15
1.26231e-15
1.23864e-15
1.22149e-15
1.20901e-15
1.19946e-15
1.19145e-15
1.18494e-15
1.18115e-15
1.18088e-15
1.18464e-15
1.19815e-15
1.22839e-15
1.28971e-15
1.39962e-15
1.59183e-15
1.94555e-15
2.57022e-15
3.77362e-15
6.29112e-15
1.18449e-14
2.48569e-14
5.69334e-14
1.39337e-13
3.5726e-13
9.48153e-13
2.57976e-12
7.13759e-12
1.9947e-11
5.5544e-11
1.53836e-10
4.03636e-10
1.05609e-09
2.59468e-09
0.414178
0.0558397
0.00435508
0.000465194
0.000146765
0.000119152
0.000118271
0.000119572
0.0001208
0.000120767
0.000119312
0.000115853
0.000110972
0.00010488
9.78471e-05
9.02369e-05
8.23799e-05
7.45004e-05
6.6815e-05
5.94988e-05
5.2645e-05
4.63011e-05
4.05117e-05
3.5283e-05
3.0599e-05
2.64484e-05
2.27943e-05
1.95798e-05
1.67671e-05
1.43286e-05
1.22225e-05
1.04043e-05
8.8397e-06
7.49768e-06
6.34719e-06
5.36354e-06
4.52791e-06
3.81992e-06