/*--------------------------------*- C++ -*----------------------------------*\
| =========                 |                                                 |
| \\      /  F ield         | OpenFOAM: The Open Source CFD Toolbox           |
|  \\    /   O peration     | Version:  2.1.x                                 |
|   \\  /    A nd           | Web:      www.OpenFOAM.org                      |
|    \\/     M anipulation  |                                                 |
\*---------------------------------------------------------------------------*/
FoamFile
{
    version     2.0;
    format      ascii;
    class       volScalarField;
    location    "0.001";
    object      nuSgs;
}
// * * * * * * * * * * * * * * * * * * * * * * * * * * * * * * * * * * * * * //

dimensions      [0 2 -1 0 0 0 0];

internalField   nonuniform List<scalar> 
12225
(
0.000198435
0.000197303
0.000172138
0.000145548
0.000132808
0.000127876
0.00012738
0.000127519
0.000123078
0.00012999
0.000118458
0.000125792
0.000130204
0.000122696
0.000122605
0.000148342
0.00015198
0.00012566
0.000107074
0.000152143
0.000156437
0.000149929
0.000141511
0.000131214
0.000126591
0.000120296
0.000117365
0.000116232
0.000109072
0.000108769
0.000106997
0.000102287
9.6291e-05
9.52675e-05
9.43544e-05
9.24323e-05
3.24121e-05
7.66634e-05
9.5318e-05
0.000101638
9.8049e-05
9.06246e-05
7.93768e-05
7.42828e-05
6.93977e-05
6.25445e-05
6.35373e-05
5.59409e-05
5.28384e-05
5.60116e-05
4.95182e-05
3.97122e-05
4.37555e-05
4.29505e-05
7.74167e-06
2.60988e-05
4.53195e-05
5.00707e-05
4.78957e-05
4.22857e-05
3.28155e-05
2.81119e-05
2.28527e-05
1.98198e-05
1.95903e-05
1.6463e-05
1.6153e-05
1.87945e-05
1.51639e-05
1.24959e-05
1.47645e-05
1.41021e-05
1.65841e-06
7.51926e-06
1.62974e-05
1.8373e-05
1.70877e-05
1.31533e-05
8.74769e-06
6.04721e-06
4.32166e-06
3.30666e-06
2.99695e-06
2.4671e-06
2.54184e-06
2.56858e-06
2.47323e-06
2.69985e-06
2.90692e-06
3.62921e-06
5.31927e-07
1.89973e-06
4.66464e-06
5.2526e-06
4.76152e-06
3.24551e-06
2.00279e-06
1.33401e-06
9.31722e-07
6.32778e-07
6.32712e-07
5.74462e-07
4.91574e-07
7.0383e-07
1.17172e-06
1.06552e-06
1.23913e-06
1.95836e-06
4.29008e-07
6.44888e-07
1.26965e-06
1.48647e-06
1.41301e-06
1.21248e-06
1.09422e-06
9.41451e-07
7.62853e-07
6.84535e-07
4.89315e-07
4.31682e-07
5.74518e-07
6.58569e-07
5.76953e-07
7.48858e-07
1.64482e-06
2.30486e-06
4.27831e-07
4.35888e-07
4.77812e-07
5.63499e-07
6.75552e-07
6.85824e-07
6.71176e-07
6.51012e-07
6.14729e-07
4.58288e-07
3.81135e-07
3.64337e-07
2.76114e-07
2.86375e-07
5.47746e-07
5.42638e-07
5.31212e-07
9.43315e-07
4.29968e-07
4.22123e-07
4.88753e-07
6.32866e-07
7.25609e-07
7.40179e-07
7.33816e-07
7.17812e-07
6.56845e-07
5.52519e-07
4.24435e-07
3.10165e-07
3.20185e-07
3.71516e-07
3.36541e-07
3.57073e-07
5.63764e-07
1.38556e-06
4.30207e-07
4.34014e-07
5.05925e-07
6.50556e-07
7.84787e-07
8.43125e-07
8.53564e-07
8.34898e-07
7.91854e-07
6.36185e-07
4.70665e-07
4.19866e-07
3.15218e-07
2.76818e-07
3.49891e-07
5.02108e-07
5.28505e-07
6.20354e-07
4.48142e-07
4.55252e-07
5.12908e-07
6.21546e-07
8.84596e-07
1.04015e-06
1.0671e-06
1.04344e-06
9.65469e-07
7.60208e-07
5.85461e-07
4.1652e-07
3.48614e-07
3.55178e-07
3.41716e-07
3.29714e-07
3.57463e-07
9.0712e-07
4.9957e-07
5.00068e-07
5.33861e-07
6.67749e-07
1.01349e-06
1.17839e-06
1.21027e-06
1.1802e-06
1.08758e-06
8.48936e-07
6.28476e-07
4.79297e-07
3.82213e-07
3.28286e-07
3.26536e-07
3.85139e-07
4.8319e-07
5.1667e-07
5.25432e-07
5.25684e-07
5.69791e-07
6.70479e-07
9.46103e-07
1.16887e-06
1.24699e-06
1.23081e-06
1.16073e-06
9.33605e-07
6.97171e-07
5.13061e-07
3.92432e-07
3.56034e-07
3.4884e-07
3.43602e-07
3.50077e-07
5.29156e-07
5.91461e-07
5.98346e-07
6.47314e-07
7.74406e-07
1.12992e-06
1.37917e-06
1.4574e-06
1.43132e-06
1.33144e-06
1.03843e-06
7.61538e-07
5.55708e-07
4.185e-07
3.50885e-07
3.36119e-07
3.40115e-07
3.77919e-07
3.95802e-07
6.11301e-07
6.21463e-07
7.12942e-07
8.50271e-07
1.17259e-06
1.4543e-06
1.54269e-06
1.52261e-06
1.43898e-06
1.15423e-06
8.41591e-07
6.07334e-07
4.45317e-07
3.5919e-07
3.32834e-07
3.27893e-07
3.34771e-07
3.84988e-07
6.55588e-07
6.72604e-07
7.57783e-07
8.97935e-07
1.32765e-06
1.82226e-06
1.9523e-06
1.91937e-06
1.78213e-06
1.37444e-06
9.8673e-07
6.98534e-07
4.98787e-07
3.80118e-07
3.30901e-07
3.21274e-07
3.22891e-07
3.44974e-07
7.52553e-07
7.68305e-07
8.23136e-07
1.01575e-06
1.65637e-06
2.08715e-06
2.17585e-06
2.12156e-06
1.92294e-06
1.4355e-06
1.01784e-06
7.08352e-07
4.94302e-07
3.64617e-07
3.06822e-07
2.94278e-07
2.93996e-07
3.13902e-07
7.39544e-07
7.49359e-07
8.21263e-07
1.05839e-06
1.67842e-06
2.01614e-06
2.06818e-06
2.00926e-06
1.80292e-06
1.33559e-06
9.41798e-07
6.49533e-07
4.47517e-07
3.22629e-07
2.62262e-07
2.46762e-07
2.44852e-07
2.56419e-07
6.82176e-07
6.83914e-07
7.30134e-07
9.02504e-07
1.41484e-06
1.72734e-06
1.78598e-06
1.73882e-06
1.56502e-06
1.15737e-06
8.1155e-07
5.55865e-07
3.79773e-07
2.6962e-07
2.13338e-07
1.96854e-07
1.94135e-07
1.99979e-07
6.70643e-07
6.60023e-07
7.23129e-07
8.07086e-07
1.13209e-06
1.51236e-06
1.59411e-06
1.56139e-06
1.43031e-06
1.07233e-06
7.49646e-07
5.11104e-07
3.47059e-07
2.4365e-07
1.88127e-07
1.69156e-07
1.65532e-07
1.67733e-07
6.02155e-07
6.26165e-07
7.46842e-07
8.55076e-07
1.15971e-06
1.4775e-06
1.53963e-06
1.50566e-06
1.37318e-06
1.0258e-06
7.17706e-07
4.88831e-07
3.31301e-07
2.31084e-07
1.75072e-07
1.53092e-07
1.4806e-07
1.47624e-07
5.69672e-07
5.81962e-07
6.39255e-07
7.67067e-07
1.12646e-06
1.31148e-06
1.32687e-06
1.28746e-06
1.14809e-06
8.50675e-07
5.99594e-07
4.12532e-07
2.83221e-07
2.00454e-07
1.53999e-07
1.35618e-07
1.31189e-07
1.30471e-07
5.64288e-07
5.61395e-07
5.84986e-07
6.69101e-07
9.49859e-07
1.14226e-06
1.16586e-06
1.13518e-06
1.0291e-06
7.72192e-07
5.46559e-07
3.7725e-07
2.59811e-07
1.84258e-07
1.41173e-07
1.23166e-07
1.18418e-07
1.17182e-07
5.24364e-07
5.27669e-07
6.20601e-07
7.96725e-07
1.05299e-06
1.14145e-06
1.12495e-06
1.08383e-06
9.61679e-07
7.19055e-07
5.10291e-07
3.52968e-07
2.4362e-07
1.73009e-07
1.32262e-07
1.14455e-07
1.0937e-07
1.07802e-07
4.88291e-07
6.01568e-07
1.17983e-06
2.00135e-06
2.04371e-06
1.90515e-06
1.60358e-06
1.27769e-06
9.79859e-07
7.21187e-07
5.14269e-07
3.62636e-07
2.62115e-07
2.00672e-07
1.66694e-07
1.50716e-07
1.44767e-07
1.39506e-07
5.25076e-07
2.07338e-06
5.70157e-06
8.50032e-06
8.20476e-06
7.1004e-06
5.01479e-06
3.42803e-06
2.38028e-06
1.70428e-06
1.2926e-06
1.03074e-06
8.89962e-07
7.951e-07
7.26924e-07
6.74814e-07
6.40201e-07
5.85486e-07
1.86863e-06
1.03828e-05
2.34903e-05
3.08869e-05
2.98249e-05
2.63937e-05
1.97633e-05
1.46227e-05
1.1197e-05
8.88123e-06
7.41296e-06
6.34887e-06
5.71822e-06
5.17763e-06
4.71836e-06
4.35966e-06
4.02284e-06
3.64108e-06
1.24221e-05
4.35912e-05
7.4417e-05
8.41767e-05
8.16759e-05
7.53832e-05
6.40879e-05
5.44536e-05
4.72256e-05
4.17979e-05
3.78182e-05
3.45293e-05
3.18903e-05
2.96031e-05
2.72976e-05
2.55746e-05
2.35068e-05
2.21101e-05
6.50098e-05
0.00014195
0.000164394
0.000163376
0.000157042
0.000145912
0.000133633
0.000124766
0.000117671
0.000111104
0.00010518
9.96529e-05
9.47154e-05
8.99632e-05
8.52807e-05
8.13017e-05
7.66468e-05
7.33248e-05
0.000206464
0.000244251
0.000228063
0.000199259
0.000178754
0.000167884
0.000162445
0.000158289
0.000153507
0.000148478
0.000143693
0.000139152
0.000134848
0.000130338
0.00012656
0.000121916
0.000118572
0.000114337
4.51489e-07
3.90085e-07
4.32148e-07
5.25074e-07
6.53227e-07
8.15451e-07
1.01425e-06
1.2507e-06
1.52573e-06
1.8401e-06
2.19445e-06
2.58943e-06
3.02542e-06
3.50278e-06
4.02159e-06
4.58183e-06
5.18343e-06
5.82592e-06
6.50885e-06
7.23167e-06
7.99349e-06
8.7931e-06
9.62946e-06
1.05015e-05
1.14076e-05
1.23461e-05
1.33154e-05
1.43137e-05
1.53393e-05
1.63904e-05
1.74649e-05
1.85604e-05
1.96747e-05
2.0807e-05
2.19554e-05
2.31162e-05
2.42876e-05
2.54693e-05
2.66596e-05
2.7855e-05
2.90533e-05
3.0255e-05
3.14591e-05
3.26621e-05
3.3862e-05
3.50591e-05
3.62536e-05
3.7443e-05
3.86248e-05
3.97991e-05
4.09668e-05
4.21268e-05
4.32767e-05
4.4416e-05
4.55456e-05
4.6666e-05
4.77753e-05
4.88727e-05
4.99586e-05
5.10339e-05
5.20982e-05
5.31507e-05
5.41911e-05
5.52204e-05
5.62389e-05
5.72464e-05
5.82425e-05
5.92276e-05
6.02024e-05
6.11672e-05
6.21219e-05
6.30666e-05
6.40017e-05
6.49279e-05
6.58454e-05
6.67543e-05
6.76548e-05
6.85477e-05
6.94334e-05
7.03118e-05
7.11832e-05
7.20481e-05
7.29073e-05
7.37613e-05
7.46099e-05
7.54531e-05
7.62906e-05
7.71231e-05
7.79514e-05
7.87758e-05
7.95964e-05
8.04134e-05
8.12276e-05
8.20396e-05
8.28496e-05
8.36579e-05
8.44648e-05
8.52708e-05
8.60766e-05
8.68824e-05
8.76885e-05
8.84947e-05
8.93014e-05
9.01089e-05
9.09178e-05
9.17284e-05
9.25407e-05
9.33548e-05
9.41707e-05
9.49888e-05
9.58097e-05
9.66335e-05
9.74602e-05
9.82901e-05
9.91232e-05
9.99597e-05
0.0001008
0.000101644
0.000102492
0.000103344
0.000104201
0.000105062
0.000105928
0.000106798
0.000107673
0.000108553
0.000109438
0.000110329
0.000111225
0.000112126
0.000113033
0.000113946
0.000114864
0.000115788
0.000116718
0.000117655
0.000118597
0.000119545
0.0001205
0.000121461
0.000122428
0.000123402
0.000124382
0.000125369
0.000126362
0.000127362
0.000128368
0.000129381
0.000130401
0.000131428
0.000132461
0.000133501
0.000134547
0.0001356
0.00013666
0.000137726
0.000138798
0.000139876
0.00014096
0.00014205
0.000143144
0.000144242
0.000145343
0.000146446
0.00014755
0.000148653
0.000149752
0.000150842
0.000151922
0.000152982
0.000154016
0.000155012
0.000155954
0.000156811
0.000157571
0.000158111
0.000158478
0.000158214
0.000157767
0.00015543
1.40047e-06
5.75315e-07
3.75321e-07
3.58367e-07
3.58794e-07
3.60481e-07
3.62438e-07
3.64744e-07
3.67428e-07
3.70864e-07
3.75474e-07
3.81721e-07
3.90058e-07
4.00946e-07
4.14852e-07
4.32179e-07
4.53246e-07
4.783e-07
5.0755e-07
5.41077e-07
5.78888e-07
6.21025e-07
6.67517e-07
7.183e-07
7.73304e-07
8.32515e-07
8.95941e-07
9.63485e-07
1.03512e-06
1.11082e-06
1.19052e-06
1.27408e-06
1.36144e-06
1.45264e-06
1.54755e-06
1.64592e-06
1.74766e-06
1.8528e-06
1.96122e-06
2.07258e-06
2.18674e-06
2.30373e-06
2.42346e-06
2.54556e-06
2.66981e-06
2.79621e-06
2.92475e-06
3.05515e-06
3.18706e-06
3.32044e-06
3.45533e-06
3.59159e-06
3.7289e-06
3.86706e-06
4.00614e-06
4.14614e-06
4.28683e-06
4.42797e-06
4.56953e-06
4.71159e-06
4.85405e-06
4.99675e-06
5.13956e-06
5.28253e-06
5.42568e-06
5.56894e-06
5.71218e-06
5.85538e-06
5.9986e-06
6.14185e-06
6.28507e-06
6.42822e-06
6.57131e-06
6.71441e-06
6.85751e-06
7.0006e-06
7.14367e-06
7.28679e-06
7.43002e-06
7.57333e-06
7.71671e-06
7.86022e-06
8.00395e-06
8.14799e-06
8.29233e-06
8.43704e-06
8.58956e-06
8.75035e-06
8.91763e-06
9.09e-06
9.2662e-06
9.44555e-06
9.62742e-06
9.81161e-06
9.99694e-06
1.01822e-05
1.03671e-05
1.05514e-05
1.07357e-05
1.09197e-05
1.11032e-05
1.12862e-05
1.14687e-05
1.16515e-05
1.18348e-05
1.20186e-05
1.22026e-05
1.23869e-05
1.25716e-05
1.27571e-05
1.29438e-05
1.31315e-05
1.33203e-05
1.35102e-05
1.37012e-05
1.38936e-05
1.40875e-05
1.42831e-05
1.44804e-05
1.46795e-05
1.48805e-05
1.50834e-05
1.52881e-05
1.54949e-05
1.57039e-05
1.59153e-05
1.61292e-05
1.63456e-05
1.65644e-05
1.67858e-05
1.70098e-05
1.72366e-05
1.74664e-05
1.76992e-05
1.7935e-05
1.8174e-05
1.8416e-05
1.86613e-05
1.89098e-05
1.91619e-05
1.94175e-05
1.96767e-05
1.99394e-05
2.02059e-05
2.04761e-05
2.07501e-05
2.10282e-05
2.13104e-05
2.15967e-05
2.18873e-05
2.21822e-05
2.24814e-05
2.2785e-05
2.30932e-05
2.34061e-05
2.37238e-05
2.40464e-05
2.43741e-05
2.4707e-05
2.50451e-05
2.53886e-05
2.57378e-05
2.60927e-05
2.64536e-05
2.68207e-05
2.71943e-05
2.75748e-05
2.79626e-05
2.83581e-05
2.87626e-05
2.91771e-05
2.96031e-05
3.00483e-05
3.04974e-05
3.10422e-05
3.1411e-05
3.24844e-05
3.25941e-05
3.57889e-05
4.0574e-05
3.14587e-06
1.0647e-06
4.5537e-07
3.71069e-07
3.64564e-07
3.64541e-07
3.64514e-07
3.63913e-07
3.62783e-07
3.61086e-07
3.58787e-07
3.55855e-07
3.52266e-07
3.48012e-07
3.43119e-07
3.37605e-07
3.31469e-07
3.24757e-07
3.17521e-07
3.0973e-07
3.01423e-07
2.92798e-07
2.8394e-07
2.74702e-07
2.65118e-07
2.55553e-07
2.46114e-07
2.36534e-07
2.26872e-07
2.17527e-07
2.08592e-07
1.99836e-07
1.91358e-07
1.83529e-07
1.76429e-07
1.69913e-07
1.64039e-07
1.59077e-07
1.54772e-07
1.51279e-07
1.49122e-07
1.47905e-07
1.47528e-07
1.47888e-07
1.48914e-07
1.5065e-07
1.53042e-07
1.56022e-07
1.59513e-07
1.63455e-07
1.67803e-07
1.72514e-07
1.7754e-07
1.82837e-07
1.88374e-07
1.94134e-07
2.00094e-07
2.06229e-07
2.12517e-07
2.18949e-07
2.25516e-07
2.32206e-07
2.39004e-07
2.45903e-07
2.52897e-07
2.59984e-07
2.67153e-07
2.74398e-07
2.81716e-07
2.89107e-07
2.96567e-07
3.0409e-07
3.11675e-07
3.19321e-07
3.27028e-07
3.34794e-07
3.42618e-07
3.505e-07
3.58443e-07
3.66445e-07
3.74506e-07
3.82626e-07
3.9081e-07
3.99062e-07
4.07382e-07
4.15766e-07
4.24264e-07
4.33023e-07
4.4212e-07
4.51546e-07
4.62335e-07
4.76096e-07
4.91793e-07
5.08801e-07
5.26487e-07
5.44366e-07
5.62212e-07
5.79955e-07
5.97584e-07
6.15065e-07
6.32356e-07
6.49456e-07
6.66417e-07
6.83305e-07
7.00148e-07
7.16933e-07
7.33625e-07
7.50235e-07
7.66803e-07
7.8338e-07
7.99998e-07
8.16655e-07
8.33338e-07
8.50052e-07
8.66813e-07
8.83649e-07
9.00594e-07
9.17666e-07
9.3488e-07
9.52243e-07
9.69749e-07
9.87398e-07
1.0052e-06
1.02319e-06
1.0414e-06
1.05985e-06
1.07854e-06
1.09748e-06
1.11666e-06
1.1361e-06
1.15583e-06
1.17586e-06
1.19622e-06
1.21693e-06
1.23798e-06
1.25937e-06
1.28112e-06
1.30326e-06
1.32581e-06
1.34879e-06
1.37219e-06
1.39602e-06
1.42031e-06
1.44505e-06
1.47026e-06
1.49598e-06
1.52224e-06
1.54906e-06
1.57643e-06
1.60438e-06
1.63293e-06
1.66209e-06
1.69188e-06
1.72236e-06
1.75355e-06
1.78549e-06
1.81823e-06
1.85179e-06
1.88627e-06
1.92172e-06
1.95822e-06
1.99591e-06
2.03488e-06
2.07528e-06
2.11737e-06
2.16137e-06
2.20763e-06
2.25668e-06
2.30902e-06
2.36566e-06
2.42776e-06
2.49692e-06
2.57709e-06
2.66696e-06
2.79466e-06
2.89699e-06
3.2259e-06
3.35449e-06
4.29189e-06
6.18404e-06
5.71235e-06
1.82387e-06
6.16211e-07
3.9878e-07
3.76896e-07
3.7574e-07
3.75825e-07
3.75468e-07
3.74497e-07
3.7287e-07
3.70566e-07
3.67565e-07
3.63833e-07
3.59363e-07
3.54218e-07
3.48403e-07
3.41827e-07
3.3454e-07
3.26743e-07
3.18435e-07
3.09472e-07
2.99981e-07
2.90227e-07
2.80155e-07
2.69656e-07
2.5893e-07
2.4815e-07
2.37257e-07
2.26311e-07
2.15482e-07
2.04711e-07
1.93978e-07
1.8351e-07
1.73402e-07
1.6346e-07
1.53648e-07
1.4423e-07
1.35307e-07
1.26677e-07
1.18249e-07
1.10215e-07
1.02706e-07
9.55901e-08
8.87316e-08
8.22048e-08
7.61343e-08
7.04869e-08
6.51428e-08
6.00807e-08
5.53698e-08
5.10347e-08
4.70098e-08
4.32453e-08
3.97498e-08
3.65476e-08
3.36274e-08
3.09535e-08
2.85043e-08
2.62802e-08
2.42834e-08
2.25038e-08
2.09242e-08
1.95321e-08
1.83202e-08
1.72867e-08
1.6375e-08
1.5615e-08
1.50535e-08
1.46323e-08
1.43115e-08
1.40817e-08
1.39323e-08
1.38525e-08
1.38328e-08
1.38639e-08
1.39365e-08
1.40484e-08
1.41929e-08
1.43644e-08
1.45591e-08
1.47738e-08
1.50056e-08
1.52518e-08
1.55108e-08
1.57811e-08
1.60617e-08
1.63516e-08
1.66519e-08
1.69639e-08
1.72918e-08
1.76377e-08
1.80207e-08
1.87254e-08
1.97213e-08
2.08696e-08
2.20775e-08
2.33011e-08
2.45238e-08
2.57392e-08
2.69421e-08
2.81286e-08
2.92992e-08
3.04577e-08
3.16079e-08
3.27505e-08
3.3883e-08
3.50026e-08
3.611e-08
3.72087e-08
3.83028e-08
3.9394e-08
4.04818e-08
4.15644e-08
4.26416e-08
4.37148e-08
4.47864e-08
4.58598e-08
4.69367e-08
4.80181e-08
4.91036e-08
5.01915e-08
5.12815e-08
5.23755e-08
5.34772e-08
5.45898e-08
5.57143e-08
5.685e-08
5.79955e-08
5.9151e-08
6.03189e-08
6.15021e-08
6.2703e-08
6.39223e-08
6.51602e-08
6.64164e-08
6.76913e-08
6.89868e-08
7.03057e-08
7.16502e-08
7.30205e-08
7.44165e-08
7.58381e-08
7.72861e-08
7.87617e-08
8.02665e-08
8.1804e-08
8.33781e-08
8.49893e-08
8.66368e-08
8.83226e-08
9.00484e-08
9.1815e-08
9.3626e-08
9.54882e-08
9.74035e-08
9.93764e-08
1.01413e-07
1.03516e-07
1.05699e-07
1.07971e-07
1.10343e-07
1.12837e-07
1.15467e-07
1.18259e-07
1.21255e-07
1.24495e-07
1.28037e-07
1.3198e-07
1.36413e-07
1.41515e-07
1.47509e-07
1.54693e-07
1.6375e-07
1.74747e-07
1.91861e-07
2.07495e-07
2.56278e-07
2.87662e-07
4.31941e-07
8.34675e-07
9.05841e-06
2.85145e-06
8.62522e-07
4.46455e-07
3.946e-07
3.90829e-07
3.90863e-07
3.90656e-07
3.89823e-07
3.88277e-07
3.85976e-07
3.82913e-07
3.79066e-07
3.74386e-07
3.68921e-07
3.62734e-07
3.55754e-07
3.47981e-07
3.39594e-07
3.30627e-07
3.20992e-07
3.10878e-07
3.00481e-07
2.89632e-07
2.78337e-07
2.67019e-07
2.55744e-07
2.44188e-07
2.32454e-07
2.20971e-07
2.09778e-07
1.98645e-07
1.87601e-07
1.76853e-07
1.66477e-07
1.56441e-07
1.46728e-07
1.3734e-07
1.28315e-07
1.1973e-07
1.11601e-07
1.03841e-07
9.63988e-08
8.93572e-08
8.27924e-08
7.66388e-08
7.07879e-08
6.52468e-08
6.00978e-08
5.53467e-08
5.09056e-08
4.67178e-08
4.28088e-08
3.92147e-08
3.59105e-08
3.28384e-08
2.99723e-08
2.73248e-08
2.49033e-08
2.26837e-08
2.06349e-08
1.8743e-08
1.70077e-08
1.54251e-08
1.39807e-08
1.26581e-08
1.14469e-08
1.03415e-08
9.33618e-09
8.42299e-09
7.5935e-09
6.83999e-09
6.15568e-09
5.53511e-09
4.97394e-09
4.46811e-09
4.01278e-09
3.60248e-09
3.23255e-09
2.90002e-09
2.60271e-09
2.33803e-09
2.10279e-09
1.89397e-09
1.70936e-09
1.54745e-09
1.40673e-09
1.28531e-09
1.18136e-09
1.09368e-09
1.0177e-09
9.56799e-10
9.17083e-10
9.06072e-10
9.17352e-10
9.48218e-10
9.9128e-10
1.04216e-09
1.09816e-09
1.1574e-09
1.21866e-09
1.28131e-09
1.34507e-09
1.40971e-09
1.4749e-09
1.5402e-09
1.60527e-09
1.67005e-09
1.73467e-09
1.79929e-09
1.86392e-09
1.92844e-09
1.99267e-09
2.05652e-09
2.12002e-09
2.18335e-09
2.2467e-09
2.31021e-09
2.37389e-09
2.43765e-09
2.5013e-09
2.56481e-09
2.62835e-09
2.69221e-09
2.75662e-09
2.8216e-09
2.88702e-09
2.95272e-09
3.01874e-09
3.08528e-09
3.1526e-09
3.22089e-09
3.29014e-09
3.3603e-09
3.43132e-09
3.50323e-09
3.57621e-09
3.65051e-09
3.72628e-09
3.80352e-09
3.88216e-09
3.96217e-09
4.04357e-09
4.12646e-09
4.21099e-09
4.29743e-09
4.38609e-09
4.47701e-09
4.5701e-09
4.66542e-09
4.76315e-09
4.86335e-09
4.96632e-09
5.07267e-09
5.18257e-09
5.29633e-09
5.4145e-09
5.53739e-09
5.66607e-09
5.80162e-09
5.94494e-09
6.09809e-09
6.26278e-09
6.44125e-09
6.6378e-09
6.85678e-09
7.10418e-09
7.3903e-09
7.72568e-09
8.1296e-09
8.62869e-09
9.25978e-09
1.01028e-08
1.11979e-08
1.29953e-08
1.49212e-08
2.0288e-08
2.62177e-08
4.48309e-08
1.12318e-07
1.31253e-05
4.15411e-06
1.19465e-06
5.20065e-07
4.19503e-07
4.10982e-07
4.10918e-07
4.10978e-07
4.10389e-07
4.09022e-07
4.068e-07
4.03694e-07
3.99686e-07
3.9472e-07
3.8885e-07
3.82144e-07
3.74488e-07
3.65908e-07
3.56726e-07
3.46973e-07
3.36391e-07
3.25182e-07
3.13747e-07
3.01994e-07
2.89822e-07
2.77493e-07
2.65103e-07
2.5261e-07
2.40223e-07
2.28074e-07
2.15992e-07
2.03983e-07
1.92358e-07
1.81218e-07
1.7035e-07
1.59694e-07
1.49463e-07
1.39786e-07
1.30554e-07
1.21653e-07
1.13133e-07
1.05093e-07
9.75465e-08
9.04258e-08
8.36728e-08
7.72876e-08
7.13106e-08
6.57561e-08
6.05801e-08
5.57177e-08
5.1152e-08
4.69152e-08
4.30187e-08
3.94172e-08
3.60551e-08
3.29205e-08
3.00351e-08
2.74e-08
2.49785e-08
2.27344e-08
2.06581e-08
1.87567e-08
1.70269e-08
1.54465e-08
1.39939e-08
1.26603e-08
1.14437e-08
1.03384e-08
9.3335e-09
8.41765e-09
7.58354e-09
6.82571e-09
6.13833e-09
5.51518e-09
4.95093e-09
4.44106e-09
3.98078e-09
3.56499e-09
3.18902e-09
2.84969e-09
2.54446e-09
2.27061e-09
2.02477e-09
1.80375e-09
1.60512e-09
1.4271e-09
1.26787e-09
1.12558e-09
9.9832e-10
8.84646e-10
7.83295e-10
6.93249e-10
6.13078e-10
5.41657e-10
4.78231e-10
4.22062e-10
3.72557e-10
3.29091e-10
2.90923e-10
2.57404e-10
2.28109e-10
2.02785e-10
1.81184e-10
1.63009e-10
1.47924e-10
1.35638e-10
1.25918e-10
1.18529e-10
1.12938e-10
1.09633e-10
1.07799e-10
1.07105e-10
1.07317e-10
1.08246e-10
1.09762e-10
1.11727e-10
1.14037e-10
1.16622e-10
1.19427e-10
1.22397e-10
1.25478e-10
1.28636e-10
1.31861e-10
1.35161e-10
1.38538e-10
1.41986e-10
1.45482e-10
1.49011e-10
1.52568e-10
1.56166e-10
1.59823e-10
1.63546e-10
1.6733e-10
1.71165e-10
1.75047e-10
1.78979e-10
1.82973e-10
1.87046e-10
1.91208e-10
1.95454e-10
1.99779e-10
2.04177e-10
2.08649e-10
2.13203e-10
2.17849e-10
2.22606e-10
2.27494e-10
2.32518e-10
2.37669e-10
2.42947e-10
2.48365e-10
2.53931e-10
2.59664e-10
2.65609e-10
2.71784e-10
2.78206e-10
2.84919e-10
2.91947e-10
2.99373e-10
3.07289e-10
3.15773e-10
3.24997e-10
3.3513e-10
3.46381e-10
3.59155e-10
3.73923e-10
3.91352e-10
4.12603e-10
4.39129e-10
4.73588e-10
5.20189e-10
5.86278e-10
6.86165e-10
8.52721e-10
1.17584e-09
1.79965e-09
2.99506e-09
5.55765e-09
9.91759e-09
2.41039e-08
1.78361e-05
5.7387e-06
1.61542e-06
6.23953e-07
4.53422e-07
4.37126e-07
4.36909e-07
4.37476e-07
4.37357e-07
4.36327e-07
4.34275e-07
4.31175e-07
4.27009e-07
4.2164e-07
4.15119e-07
4.07664e-07
3.99175e-07
3.8957e-07
3.79169e-07
3.68096e-07
3.56204e-07
3.43744e-07
3.30982e-07
3.17758e-07
3.04167e-07
2.9061e-07
2.77099e-07
2.63466e-07
2.49872e-07
2.36553e-07
2.2354e-07
2.10834e-07
1.9847e-07
1.86439e-07
1.74776e-07
1.63624e-07
1.53034e-07
1.42877e-07
1.33077e-07
1.23749e-07
1.15011e-07
1.06799e-07
9.89831e-08
9.15487e-08
8.45788e-08
7.81054e-08
7.20653e-08
6.6382e-08
6.10392e-08
5.60655e-08
5.14734e-08
4.72302e-08
4.32808e-08
3.95922e-08
3.61707e-08
3.30306e-08
3.0156e-08
2.75044e-08
2.50428e-08
2.27674e-08
2.06878e-08
1.87965e-08
1.7065e-08
1.54693e-08
1.40022e-08
1.26649e-08
1.14526e-08
1.03497e-08
9.34119e-09
8.42006e-09
7.58328e-09
6.82592e-09
6.13968e-09
5.51648e-09
4.95129e-09
4.44049e-09
3.9798e-09
3.56392e-09
3.18799e-09
2.84869e-09
2.54363e-09
2.26991e-09
2.02411e-09
1.80296e-09
1.60419e-09
1.42607e-09
1.2669e-09
1.12474e-09
9.97611e-10
8.83946e-10
7.8255e-10
6.92342e-10
6.12101e-10
5.40672e-10
4.77141e-10
4.20724e-10
3.70762e-10
3.26593e-10
2.87507e-10
2.52872e-10
2.22205e-10
1.95125e-10
1.71279e-10
1.50309e-10
1.31878e-10
1.15687e-10
1.01497e-10
8.90764e-11
7.81899e-11
6.86257e-11
6.02255e-11
5.2879e-11
4.64988e-11
4.09824e-11
3.62048e-11
3.20401e-11
2.84025e-11
2.52472e-11
2.25503e-11
2.02765e-11
1.83688e-11
1.67656e-11
1.5416e-11
1.42875e-11
1.33583e-11
1.26082e-11
1.20063e-11
1.15291e-11
1.11821e-11
1.09297e-11
1.07553e-11
1.06465e-11
1.05895e-11
1.05736e-11
1.05932e-11
1.06455e-11
1.073e-11
1.08424e-11
1.09765e-11
1.11259e-11
1.12868e-11
1.1459e-11
1.16437e-11
1.1842e-11
1.20528e-11
1.22748e-11
1.2507e-11
1.27488e-11
1.29995e-11
1.32595e-11
1.35295e-11
1.38098e-11
1.41009e-11
1.44063e-11
1.47275e-11
1.50655e-11
1.54247e-11
1.5808e-11
1.62252e-11
1.66895e-11
1.72148e-11
1.78355e-11
1.85932e-11
1.95512e-11
2.08583e-11
2.27108e-11
2.55649e-11
3.03973e-11
3.92713e-11
5.57317e-11
8.51055e-11
1.37652e-10
2.31286e-10
4.01324e-10
7.06805e-10
1.29055e-09
2.30349e-09
4.32854e-09
7.51107e-09
1.36981e-08
2.30957e-05
7.60806e-06
2.12902e-06
7.61043e-07
4.98599e-07
4.70743e-07
4.70394e-07
4.71865e-07
4.72619e-07
4.72243e-07
4.70535e-07
4.67454e-07
4.63056e-07
4.5718e-07
4.49819e-07
4.41232e-07
4.31374e-07
4.20207e-07
4.08176e-07
3.95396e-07
3.8166e-07
3.67263e-07
3.5257e-07
3.37555e-07
3.22308e-07
3.07033e-07
2.91733e-07
2.76499e-07
2.616e-07
2.47096e-07
2.32859e-07
2.1892e-07
2.05468e-07
1.926e-07
1.80273e-07
1.68433e-07
1.57076e-07
1.4625e-07
1.36024e-07
1.26403e-07
1.17297e-07
1.08639e-07
1.00467e-07
9.28507e-08
8.57676e-08
7.91183e-08
7.28469e-08
6.69824e-08
6.1561e-08
5.65555e-08
5.18994e-08
4.75486e-08
4.3502e-08
3.97726e-08
3.63509e-08
3.32014e-08
3.02851e-08
2.75821e-08
2.50934e-08
2.28216e-08
2.07496e-08
1.88473e-08
1.70926e-08
1.54798e-08
1.40112e-08
1.26807e-08
1.14696e-08
1.03597e-08
9.34316e-09
8.41908e-09
7.5842e-09
6.82902e-09
6.14233e-09
5.51713e-09
4.95037e-09
4.43935e-09
3.97909e-09
3.56333e-09
3.18721e-09
2.84791e-09
2.543e-09
2.26941e-09
2.02349e-09
1.8021e-09
1.60317e-09
1.4251e-09
1.26618e-09
1.12422e-09
9.97205e-10
8.83417e-10
7.81908e-10
6.91643e-10
6.11386e-10
5.40063e-10
4.76732e-10
4.20461e-10
3.7051e-10
3.26284e-10
2.87168e-10
2.52573e-10
2.21973e-10
1.94911e-10
1.71024e-10
1.49993e-10
1.31537e-10
1.15384e-10
1.01254e-10
8.88571e-11
7.7943e-11
6.83245e-11
5.98781e-11
5.25197e-11
4.61492e-11
4.06317e-11
3.58117e-11
3.15588e-11
2.78011e-11
2.45143e-11
2.16794e-11
1.92597e-11
1.71923e-11
1.54077e-11
1.38506e-11
1.24891e-11
1.13075e-11
1.02925e-11
9.42516e-12
8.68074e-12
8.03747e-12
7.48146e-12
7.00307e-12
6.59059e-12
6.23021e-12
5.9133e-12
5.63945e-12
5.41049e-12
5.22415e-12
5.07263e-12
4.94439e-12
4.82868e-12
4.72119e-12
4.6254e-12
4.54678e-12
4.48672e-12
4.44057e-12
4.40162e-12
4.36561e-12
4.33165e-12
4.3013e-12
4.27618e-12
4.25618e-12
4.23994e-12
4.22576e-12
4.21482e-12
4.20774e-12
4.20645e-12
4.21418e-12
4.23125e-12
4.26948e-12
4.35262e-12
4.50003e-12
4.77099e-12
5.23899e-12
6.00179e-12
7.31045e-12
9.5253e-12
1.32474e-11
1.95163e-11
3.00908e-11
4.80277e-11
7.86272e-11
1.31422e-10
2.23231e-10
3.86147e-10
6.73662e-10
1.20089e-09
2.10748e-09
3.7627e-09
6.45021e-09
1.07746e-08
2.87869e-05
9.75467e-06
2.73683e-06
9.32386e-07
5.57463e-07
5.14039e-07
5.13945e-07
5.1703e-07
5.19328e-07
5.20148e-07
5.19067e-07
5.16104e-07
5.11326e-07
5.04533e-07
4.9577e-07
4.8547e-07
4.73677e-07
4.60301e-07
4.45739e-07
4.30257e-07
4.13925e-07
3.97059e-07
3.79823e-07
3.62232e-07
3.44521e-07
3.26953e-07
3.09599e-07
2.92513e-07
2.75784e-07
2.59467e-07
2.43646e-07
2.28448e-07
2.13901e-07
1.99931e-07
1.86518e-07
1.73742e-07
1.61674e-07
1.50296e-07
1.39529e-07
1.2932e-07
1.19684e-07
1.10669e-07
1.02276e-07
9.44291e-08
8.70414e-08
8.0105e-08
7.36673e-08
6.77329e-08
6.22319e-08
5.70882e-08
5.22848e-08
4.78473e-08
4.37782e-08
4.00352e-08
3.65681e-08
3.33516e-08
3.03832e-08
2.76648e-08
2.51818e-08
2.29061e-08
2.08107e-08
1.888e-08
1.71097e-08
1.54987e-08
1.4037e-08
1.27042e-08
1.1482e-08
1.0362e-08
9.34269e-09
8.42179e-09
7.58965e-09
6.83317e-09
6.14309e-09
5.51551e-09
4.94881e-09
4.43901e-09
3.97925e-09
3.56303e-09
3.18631e-09
2.84686e-09
2.54223e-09
2.26877e-09
2.02268e-09
1.80101e-09
1.60201e-09
1.4242e-09
1.26563e-09
1.12385e-09
9.96744e-10
8.82692e-10
7.81018e-10
6.90713e-10
6.10457e-10
5.39328e-10
4.76227e-10
4.20026e-10
3.70048e-10
3.25803e-10
2.86755e-10
2.52278e-10
2.21752e-10
1.94697e-10
1.7077e-10
1.49718e-10
1.31287e-10
1.15187e-10
1.01091e-10
8.86779e-11
7.77146e-11
6.80611e-11
5.96268e-11
5.23211e-11
4.60169e-11
4.05436e-11
3.57313e-11
3.14662e-11
2.76968e-11
2.44106e-11
2.1588e-11
1.91841e-11
1.71274e-11
1.5343e-11
1.37786e-11
1.24091e-11
1.12267e-11
1.02206e-11
9.36855e-12
8.64003e-12
8.00857e-12
7.45788e-12
6.97796e-12
6.55976e-12
6.19337e-12
5.87384e-12
5.60119e-12
5.37541e-12
5.19155e-12
5.03973e-12
4.90792e-12
4.78709e-12
4.67633e-12
4.58133e-12
4.50632e-12
4.45005e-12
4.40611e-12
4.36639e-12
4.32728e-12
4.28999e-12
4.25833e-12
4.23382e-12
4.21532e-12
4.20097e-12
4.18882e-12
4.17981e-12
4.17462e-12
4.17546e-12
4.18613e-12
4.20573e-12
4.24819e-12
4.33711e-12
4.50117e-12
4.79039e-12
5.28525e-12
6.07722e-12
7.42169e-12
9.67474e-12
1.34348e-11
1.97313e-11
3.02958e-11
4.81132e-11
7.83059e-11
1.29946e-10
2.18844e-10
3.73958e-10
6.43664e-10
1.12064e-09
1.93258e-09
3.31906e-09
5.57986e-09
8.96623e-09
3.47655e-05
1.21493e-05
3.42974e-06
1.13519e-06
6.32719e-07
5.71001e-07
5.72366e-07
5.78279e-07
5.83362e-07
5.86061e-07
5.86084e-07
5.8299e-07
5.77353e-07
5.69023e-07
5.58005e-07
5.44841e-07
5.29739e-07
5.12813e-07
4.94561e-07
4.75325e-07
4.55243e-07
4.34609e-07
4.13688e-07
3.92702e-07
3.71867e-07
3.51322e-07
3.31157e-07
3.11477e-07
2.92408e-07
2.7406e-07
2.56476e-07
2.39617e-07
2.23468e-07
2.08103e-07
1.93597e-07
1.79926e-07
1.67001e-07
1.54774e-07
1.43259e-07
1.32482e-07
1.22432e-07
1.13049e-07
1.04259e-07
9.60183e-08
8.8336e-08
8.12329e-08
7.46757e-08
6.8578e-08
6.28768e-08
5.75759e-08
5.27029e-08
4.82401e-08
4.41221e-08
4.02937e-08
3.67437e-08
3.34847e-08
3.05123e-08
2.7792e-08
2.5286e-08
2.29741e-08
2.08499e-08
1.89097e-08
1.71444e-08
1.55365e-08
1.40661e-08
1.27188e-08
1.1486e-08
1.03642e-08
9.3488e-09
8.43027e-09
7.59551e-09
6.83413e-09
6.14079e-09
5.51349e-09
4.94878e-09
4.43996e-09
3.97955e-09
3.56206e-09
3.1847e-09
2.84545e-09
2.54126e-09
2.26794e-09
2.02158e-09
1.79974e-09
1.60088e-09
1.42349e-09
1.26522e-09
1.12344e-09
9.95991e-10
8.81675e-10
7.79875e-10
6.89761e-10
6.0981e-10
5.38852e-10
4.75753e-10
4.19452e-10
3.69395e-10
3.25188e-10
2.86275e-10
2.5194e-10
2.21488e-10
1.94432e-10
1.70497e-10
1.49485e-10
1.3112e-10
1.15058e-10
1.00928e-10
8.84385e-11
7.74134e-11
6.77512e-11
5.93619e-11
5.21223e-11
4.58641e-11
4.04005e-11
3.55788e-11
3.13099e-11
2.75582e-11
2.43054e-11
2.15171e-11
1.91352e-11
1.7081e-11
1.52834e-11
1.37006e-11
1.23193e-11
1.11382e-11
1.01455e-11
9.31331e-12
8.60343e-12
7.98368e-12
7.43593e-12
6.953e-12
6.5307e-12
6.16381e-12
5.84826e-12
5.58192e-12
5.36228e-12
5.18181e-12
5.02911e-12
4.89335e-12
4.76867e-12
4.65787e-12
4.56725e-12
4.49865e-12
4.44835e-12
4.40818e-12
4.36941e-12
4.3291e-12
4.29105e-12
4.26084e-12
4.23982e-12
4.2259e-12
4.21666e-12
4.20989e-12
4.20598e-12
4.20613e-12
4.21335e-12
4.22804e-12
4.25501e-12
4.30881e-12
4.41414e-12
4.59625e-12
4.90514e-12
5.42803e-12
6.24932e-12
7.61699e-12
9.90077e-12
1.36902e-11
2.00031e-11
3.05434e-11
4.82183e-11
7.79614e-11
1.28387e-10
2.14312e-10
3.61786e-10
6.14491e-10
1.04763e-09
1.77667e-09
2.95817e-09
4.87964e-09
7.70035e-09
4.08495e-05
1.47198e-05
4.1724e-06
1.35969e-06
7.31559e-07
6.53422e-07
6.57787e-07
6.68105e-07
6.77045e-07
6.82054e-07
6.8308e-07
6.79188e-07
6.71226e-07
6.59515e-07
6.44189e-07
6.25972e-07
6.05459e-07
5.82911e-07
5.58785e-07
5.3366e-07
5.0799e-07
4.82047e-07
4.56093e-07
4.30408e-07
4.05179e-07
3.806e-07
3.56848e-07
3.33983e-07
3.12033e-07
2.91074e-07
2.71129e-07
2.52188e-07
2.34296e-07
2.17487e-07
2.01679e-07
1.86757e-07
1.72714e-07
1.5961e-07
1.47432e-07
1.36071e-07
1.25438e-07
1.15509e-07
1.06282e-07
9.77373e-08
8.98321e-08
8.25062e-08
7.56987e-08
6.93711e-08
6.3521e-08
5.8149e-08
5.32175e-08
4.86583e-08
4.44238e-08
4.05108e-08
3.69323e-08
3.36706e-08
3.0677e-08
2.79113e-08
2.53597e-08
2.30238e-08
2.08989e-08
1.89642e-08
1.7193e-08
1.55685e-08
1.40818e-08
1.27259e-08
1.14935e-08
1.03755e-08
9.36054e-09
8.43756e-09
7.59677e-09
6.8318e-09
6.13887e-09
5.51389e-09
4.95039e-09
4.44082e-09
3.97858e-09
3.55988e-09
3.18254e-09
2.844e-09
2.54028e-09
2.26684e-09
2.02017e-09
1.79827e-09
1.59979e-09
1.42289e-09
1.26468e-09
1.12271e-09
9.94835e-10
8.8036e-10
7.7897e-10
6.89077e-10
6.09201e-10
5.38367e-10
4.75232e-10
4.18751e-10
3.68612e-10
3.24515e-10
2.85784e-10
2.51555e-10
2.21113e-10
1.9406e-10
1.70196e-10
1.49291e-10
1.31006e-10
1.14933e-10
1.00715e-10
8.8134e-11
7.7078e-11
6.7457e-11