/*--------------------------------*- C++ -*----------------------------------*\
| =========                 |                                                 |
| \\      /  F ield         | OpenFOAM: The Open Source CFD Toolbox           |
|  \\    /   O peration     | Version:  2.1.x                                 |
|   \\  /    A nd           | Web:      www.OpenFOAM.org                      |
|    \\/     M anipulation  |                                                 |
\*---------------------------------------------------------------------------*/
FoamFile
{
    version     2.0;
    format      ascii;
    class       volScalarField;
    location    "0.001";
    object      p;
}
// * * * * * * * * * * * * * * * * * * * * * * * * * * * * * * * * * * * * * //

dimensions      [0 2 -2 0 0 0 0];

internalField   nonuniform List<scalar> 
12225
(
-710.898
-728.404
-733.914
-733.681
-730.916
-727.325
-723.553
-720.669
-718.502
-714.545
-713.147
-711.242
-706.545
-707.538
-708.804
-704.147
-702.617
-726.134
-714.127
-728.771
-733.876
-733.664
-730.926
-727.369
-723.598
-720.683
-718.604
-714.566
-713.108
-711.535
-706.618
-707.189
-709.121
-704.952
-704.459
-718.525
-716.634
-728.787
-733.454
-733.465
-730.812
-727.274
-723.638
-720.792
-718.552
-714.742
-712.85
-711.515
-706.891
-706.866
-708.782
-705.261
-700.796
-711.77
-720.547
-729.106
-733.164
-733.256
-730.573
-727.006
-723.628
-720.689
-718.491
-714.827
-712.518
-711.098
-707.159
-706.108
-706.823
-704.567
-702.831
-704.613
-723.144
-729.787
-733.058
-733.131
-730.374
-726.832
-723.592
-720.772
-718.332
-715.025
-712.207
-710.454
-707.354
-704.94
-705.215
-703.592
-699.75
-701.454
-725.596
-730.822
-733.156
-733.081
-730.261
-726.649
-723.552
-720.918
-718.071
-715.118
-712.174
-709.755
-707.304
-704.779
-703.38
-701.915
-699.518
-698.723
-732.934
-732.584
-733.596
-733.226
-730.278
-726.587
-723.607
-720.831
-718.213
-715.043
-711.834
-709.62
-706.945
-703.878
-702.19
-700.63
-697.26
-694.869
-736.588
-734.037
-734.133
-733.46
-730.413
-726.726
-723.626
-721.063
-718.057
-714.952
-711.93
-708.943
-706.369
-703.706
-701.209
-698.766
-695.92
-693.156
-737.978
-735.352
-734.766
-733.756
-730.586
-726.784
-723.751
-721.031
-718.144
-714.954
-711.637
-708.841
-706.146
-702.892
-700.18
-697.926
-695.08
-690.95
-739.043
-736.734
-735.554
-734.216
-730.891
-727.064
-723.882
-721.214
-718.175
-714.82
-711.643
-708.471
-705.428
-702.591
-699.632
-696.373
-693.133
-690.661
-744.243
-738.524
-736.56
-734.843
-731.342
-727.298
-724.139
-721.359
-718.242
-714.839
-711.402
-708.127
-705.114
-701.856
-698.496
-695.561
-692.475
-688.811
-743.554
-739.751
-737.703
-735.658
-731.948
-727.82
-724.529
-721.644
-718.429
-714.839
-711.306
-707.911
-704.547
-701.229
-697.929
-694.527
-690.9
-687.646
-743.84
-741.421
-739.136
-736.791
-732.876
-728.574
-725.126
-722.075
-718.689
-714.956
-711.252
-707.662
-704.187
-700.71
-697.129
-693.639
-690.233
-686.716
-745.776
-743.519
-740.883
-738.251
-734.078
-729.58
-725.947
-722.71
-719.143
-715.223
-711.336
-707.588
-703.917
-700.253
-696.589
-692.973
-689.344
-685.688
-755.522
-747.116
-743.293
-740.242
-735.8
-730.995
-727.105
-723.62
-719.817
-715.684
-711.598
-707.662
-703.824
-700.016
-696.217
-692.488
-688.816
-685.165
-751.493
-748.135
-745.353
-742.557
-737.943
-732.847
-728.647
-724.861
-720.79
-716.424
-712.127
-708.004
-703.996
-700.041
-696.136
-692.328
-688.59
-684.898
-745.482
-750.109
-749.376
-746.252
-741.051
-735.465
-730.85
-726.664
-722.238
-717.581
-713.035
-708.7
-704.513
-700.415
-696.401
-692.509
-688.719
-685.014
-773.436
-763.993
-757.071
-751.562
-745.139
-738.787
-733.566
-728.881
-724.049
-719.068
-714.255
-709.7
-705.333
-701.091
-696.972
-693.001
-689.158
-685.429
-782.881
-770.613
-762.788
-756.228
-748.979
-741.971
-736.235
-731.114
-725.912
-720.626
-715.567
-710.812
-706.279
-701.904
-697.684
-693.635
-689.737
-685.977
-788.578
-776.15
-767.265
-760.156
-752.351
-744.774
-738.558
-733.062
-727.549
-722.006
-716.738
-711.816
-707.148
-702.664
-698.36
-694.245
-690.3
-686.509
-786.129
-778.054
-770.179
-763.077
-755.02
-747.096
-740.526
-734.723
-728.949
-723.191
-717.749
-712.689
-707.908
-703.334
-698.96
-694.79
-690.802
-686.982
-787.193
-780.958
-773.22
-765.726
-757.258
-749.007
-742.145
-736.084
-730.099
-724.172
-718.595
-713.424
-708.551
-703.902
-699.471
-695.253
-691.229
-687.382
-796.883
-784.803
-775.961
-768.014
-759.236
-750.689
-743.527
-737.213
-731.032
-724.961
-719.273
-714.014
-709.069
-704.364
-699.888
-695.634
-691.58
-687.71
-798.824
-787.607
-778.269
-770.001
-760.911
-752.063
-744.62
-738.089
-731.753
-725.575
-719.807
-714.482
-709.483
-704.735
-700.226
-695.944
-691.867
-687.976
-805.76
-790.073
-780.103
-771.637
-762.324
-753.218
-745.498
-738.762
-732.3
-726.047
-720.221
-714.845
-709.804
-705.026
-700.496
-696.195
-692.102
-688.195
-804.943
-791.139
-781.477
-773.016
-763.585
-754.255
-746.224
-739.258
-732.688
-726.39
-720.528
-715.115
-710.044
-705.248
-700.707
-696.396
-692.295
-688.377
-802.59
-791.587
-782.586
-774.169
-764.644
-755.115
-746.789
-739.611
-732.966
-726.654
-720.768
-715.323
-710.226
-705.42
-700.874
-696.557
-692.456
-688.533
-800.839
-791.843
-783.526
-775.171
-765.623
-755.889
-747.214
-739.811
-733.111
-726.808
-720.915
-715.448
-710.336
-705.53
-700.984
-696.675
-692.582
-688.655
-801.231
-792.16
-784.432
-776.023
-766.401
-756.439
-747.458
-739.898
-733.216
-726.939
-721.04
-715.551
-710.428
-705.623
-701.075
-696.783
-692.726
-688.852
-797.948
-791.628
-784.571
-776.228
-766.632
-756.59
-747.54
-739.897
-733.169
-726.901
-721.017
-715.526
-710.402
-705.594
-701.046
-696.755
-692.686
-688.801
-595.649
-595.607
-595.529
-595.416
-595.266
-595.079
-594.856
-594.597
-594.302
-593.971
-593.605
-593.205
-592.77
-592.303
-591.804
-591.273
-590.712
-590.121
-589.501
-588.854
-588.179
-587.478
-586.751
-585.999
-585.223
-584.423
-583.6
-582.754
-581.885
-580.994
-580.08
-579.145
-578.188
-577.21
-576.21
-575.188
-574.145
-573.08
-571.994
-570.886
-569.756
-568.604
-567.431
-566.236
-565.019
-563.78
-562.52
-561.237
-559.932
-558.605
-557.256
-555.885
-554.492
-553.077
-551.64
-550.181
-548.7
-547.197
-545.672
-544.125
-542.557
-540.967
-539.356
-537.723
-536.068
-534.393
-532.696
-530.977
-529.238
-527.478
-525.697
-523.894
-522.071
-520.228
-518.363
-516.478
-514.573
-512.647
-510.7
-508.734
-506.747
-504.739
-502.712
-500.664
-498.596
-496.509
-494.401
-492.273
-490.125
-487.956
-485.768
-483.559
-481.331
-479.082
-476.813
-474.524
-472.215
-469.886
-467.536
-465.166
-462.776
-460.365
-457.934
-455.482
-453.01
-450.517
-448.004
-445.469
-442.914
-440.338
-437.741
-435.122
-432.482
-429.821
-427.139
-424.435
-421.709
-418.961
-416.192
-413.4
-410.586
-407.75
-404.892
-402.01
-399.107
-396.18
-393.23
-390.258
-387.261
-384.242
-381.198
-378.131
-375.04
-371.925
-368.786
-365.622
-362.433
-359.22
-355.982
-352.718
-349.429
-346.115
-342.775
-339.409
-336.017
-332.599
-329.154
-325.683
-322.185
-318.659
-315.107
-311.527
-307.919
-304.283
-300.619
-296.927
-293.206
-289.457
-285.678
-281.87
-278.033
-274.165
-270.268
-266.34
-262.382
-258.392
-254.371
-250.319
-246.234
-242.115
-237.964
-233.777
-229.554
-225.292
-220.989
-216.637
-212.234
-207.735
-203.201
-198.377
-595.879
-595.836
-595.756
-595.639
-595.486
-595.296
-595.069
-594.805
-594.504
-594.168
-593.797
-593.39
-592.95
-592.477
-591.971
-591.434
-590.866
-590.269
-589.644
-588.99
-588.309
-587.603
-586.87
-586.114
-585.333
-584.528
-583.7
-582.85
-581.977
-581.082
-580.165
-579.227
-578.267
-577.285
-576.282
-575.258
-574.212
-573.145
-572.056
-570.946
-569.814
-568.661
-567.486
-566.289
-565.07
-563.83
-562.567
-561.283
-559.977
-558.648
-557.298
-555.925
-554.531
-553.114
-551.676
-550.216
-548.734
-547.23
-545.704
-544.156
-542.587
-540.996
-539.384
-537.75
-536.094
-534.418
-532.72
-531.001
-529.261
-527.5
-525.718
-523.915
-522.091
-520.247
-518.382
-516.497
-514.59
-512.664
-510.717
-508.75
-506.762
-504.755
-502.727
-500.679
-498.611
-496.522
-494.413
-492.285
-490.136
-487.967
-485.779
-483.57
-481.341
-479.092
-476.823
-474.534
-472.224
-469.895
-467.545
-465.175
-462.784
-460.374
-457.942
-455.491
-453.018
-450.525
-448.012
-445.477
-442.922
-440.345
-437.748
-435.13
-432.49
-429.829
-427.146
-424.442
-421.716
-418.968
-416.199
-413.407
-410.593
-407.757
-404.898
-402.017
-399.113
-396.187
-393.237
-390.264
-387.268
-384.248
-381.205
-378.138
-375.047
-371.932
-368.792
-365.628
-362.44
-359.226
-355.988
-352.725
-349.436
-346.122
-342.782
-339.416
-336.024
-332.605
-329.161
-325.689
-322.191
-318.666
-315.113
-311.533
-307.925
-304.289
-300.625
-296.933
-293.212
-289.463
-285.684
-281.876
-278.039
-274.172
-270.274
-266.346
-262.388
-258.399
-254.378
-250.325
-246.24
-242.122
-237.97
-233.783
-229.56
-225.299
-220.997
-216.647
-212.245
-207.774
-203.268
-198.727
-596.341
-596.295
-596.211
-596.089
-595.93
-595.732
-595.496
-595.223
-594.913
-594.566
-594.183
-593.765
-593.312
-592.826
-592.308
-591.758
-591.178
-590.568
-589.93
-589.265
-588.572
-587.854
-587.111
-586.344
-585.553
-584.739
-583.902
-583.044
-582.163
-581.26
-580.336
-579.391
-578.424
-577.436
-576.427
-575.397
-574.346
-573.274
-572.18
-571.066
-569.929
-568.772
-567.592
-566.391
-565.169
-563.925
-562.659
-561.371
-560.061
-558.729
-557.376
-556
-554.603
-553.184
-551.743
-550.28
-548.795
-547.288
-545.76
-544.21
-542.639
-541.046
-539.431
-537.795
-536.138
-534.46
-532.76
-531.039
-529.298
-527.535
-525.751
-523.947
-522.122
-520.277
-518.41
-516.524
-514.616
-512.689
-510.741
-508.773
-506.784
-504.776
-502.747
-500.698
-498.629
-496.539
-494.43
-492.301
-490.152
-487.983
-485.793
-483.584
-481.354
-479.105
-476.835
-474.546
-472.236
-469.906
-467.556
-465.185
-462.795
-460.383
-457.952
-455.5
-453.027
-450.534
-448.02
-445.486
-442.93
-440.353
-437.756
-435.137
-432.497
-429.836
-427.153
-424.449
-421.723
-418.975
-416.206
-413.414
-410.6
-407.764
-404.905
-402.024
-399.12
-396.193
-393.243
-390.27
-387.274
-384.254
-381.211
-378.144
-375.053
-371.938
-368.798
-365.634
-362.446
-359.232
-355.994
-352.73
-349.442
-346.127
-342.787
-339.421
-336.029
-332.611
-329.166
-325.695
-322.197
-318.671
-315.119
-311.538
-307.931
-304.295
-300.631
-296.939
-293.218
-289.468
-285.69
-281.882
-278.044
-274.177
-270.279
-266.352
-262.393
-258.404
-254.383
-250.33
-246.245
-242.127
-237.976
-233.789
-229.567
-225.307
-221.005
-216.66
-212.265
-207.824
-203.346
-198.867
-597.04
-596.99
-596.899
-596.769
-596.6
-596.39
-596.142
-595.854
-595.528
-595.164
-594.764
-594.327
-593.856
-593.351
-592.813
-592.243
-591.644
-591.015
-590.358
-589.674
-588.964
-588.229
-587.469
-586.686
-585.88
-585.052
-584.201
-583.329
-582.436
-581.522
-580.587
-579.631
-578.654
-577.657
-576.639
-575.601
-574.541
-573.461
-572.36
-571.238
-570.095
-568.931
-567.745
-566.538
-565.31
-564.06
-562.788
-561.495
-560.181
-558.844
-557.486
-556.106
-554.704
-553.281
-551.835
-550.369
-548.88
-547.37
-545.838
-544.285
-542.71
-541.114
-539.496
-537.858
-536.197
-534.516
-532.814
-531.091
-529.347
-527.582
-525.796
-523.99
-522.163
-520.315
-518.447
-516.559
-514.65
-512.721
-510.772
-508.802
-506.812
-504.802
-502.772
-500.722
-498.652
-496.561
-494.451
-492.321
-490.171
-488.001
-485.811
-483.601
-481.371
-479.12
-476.85
-474.56
-472.25
-469.919
-467.568
-465.197
-462.806
-460.395
-457.963
-455.51
-453.037
-450.544
-448.03
-445.495
-442.939
-440.362
-437.764
-435.145
-432.505
-429.844
-427.161
-424.456
-421.73
-418.982
-416.213
-413.421
-410.607
-407.77
-404.911
-402.03
-399.126
-396.199
-393.249
-390.276
-387.28
-384.26
-381.217
-378.15
-375.059
-371.943
-368.804
-365.64
-362.451
-359.238
-355.999
-352.736
-349.447
-346.133
-342.793
-339.427
-336.035
-332.616
-329.171
-325.7
-322.202
-318.676
-315.124
-311.544
-307.936
-304.3
-300.636
-296.944
-293.223
-289.473
-285.695
-281.887
-278.049
-274.182
-270.284
-266.357
-262.398
-258.409
-254.388
-250.335
-246.25
-242.133
-237.981
-233.795
-229.574
-225.315
-221.016
-216.675
-212.291
-207.87
-203.418
-198.994
-597.983
-597.927
-597.828
-597.687
-597.503
-597.278
-597.012
-596.704
-596.356
-595.969
-595.544
-595.082
-594.584
-594.052
-593.487
-592.89
-592.264
-591.609
-590.926
-590.217
-589.483
-588.724
-587.942
-587.138
-586.312
-585.464
-584.595
-583.706
-582.796
-581.866
-580.916
-579.946
-578.956
-577.946
-576.916
-575.866
-574.796
-573.705
-572.594
-571.462
-570.31
-569.137
-567.943
-566.728
-565.492
-564.234
-562.956
-561.656
-560.334
-558.991
-557.627
-556.241
-554.833
-553.404
-551.953
-550.482
-548.988
-547.473
-545.936
-544.379
-542.8
-541.2
-539.578
-537.935
-536.272
-534.587
-532.882
-531.155
-529.408
-527.64
-525.852
-524.043
-522.213
-520.363
-518.493
-516.602
-514.691
-512.76
-510.809
-508.838
-506.846
-504.834
-502.803
-500.751
-498.68
-496.588
-494.477
-492.345
-490.194
-488.023
-485.832
-483.62
-481.389
-479.138
-476.867
-474.576
-472.265
-469.934
-467.583
-465.211
-462.819
-460.407
-457.975
-455.522
-453.049
-450.555
-448.04
-445.505
-442.949
-440.372
-437.773
-435.154
-432.514
-429.852
-427.169
-424.464
-421.738
-418.99
-416.22
-413.428
-410.614
-407.777
-404.918
-402.037
-399.133
-396.206
-393.256
-390.283
-387.286
-384.266
-381.223
-378.156
-375.064
-371.949
-368.809
-365.645
-362.457
-359.243
-356.005
-352.741
-349.452
-346.138
-342.798
-339.432
-336.04
-332.621
-329.177
-325.705
-322.207
-318.681
-315.129
-311.549
-307.941
-304.305
-300.641
-296.949
-293.228
-289.478
-285.7
-281.892
-278.054
-274.187
-270.289
-266.362
-262.403
-258.414
-254.393
-250.341
-246.256
-242.138
-237.987
-233.802
-229.581
-225.324
-221.028
-216.694
-212.319
-207.917
-203.487
-199.092
-599.181
-599.118
-599.007
-598.851
-598.65
-598.405
-598.114
-597.78
-597.404
-596.986
-596.528
-596.032
-595.5
-594.933
-594.332
-593.701
-593.039
-592.35
-591.634
-590.893
-590.128
-589.339
-588.529
-587.698
-586.846
-585.973
-585.081
-584.17
-583.239
-582.29
-581.321
-580.334
-579.327
-578.301
-577.256
-576.192
-575.108
-574.004
-572.881
-571.737
-570.574
-569.389
-568.185
-566.96
-565.714
-564.447
-563.159
-561.851
-560.521
-559.17
-557.798
-556.404
-554.989
-553.554
-552.096
-550.618
-549.118
-547.597
-546.055
-544.492
-542.908
-541.302
-539.676
-538.029
-536.361
-534.672
-532.962
-531.232
-529.481
-527.71
-525.918
-524.106
-522.273
-520.42
-518.547
-516.654
-514.74
-512.807
-510.853
-508.879
-506.886
-504.872
-502.839
-500.785
-498.712
-496.619
-494.506
-492.373
-490.22
-488.048
-485.855
-483.643
-481.411
-479.159
-476.887
-474.595
-472.283
-469.951
-467.599
-465.226
-462.834
-460.421
-457.988
-455.535
-453.061
-450.567
-448.052
-445.516
-442.959
-440.382
-437.783
-435.164
-432.523
-429.861
-427.178
-424.473
-421.746
-418.998
-416.227
-413.435
-410.621
-407.784
-404.925
-402.044
-399.139
-396.212
-393.262
-390.289
-387.292
-384.272
-381.229
-378.161
-375.07
-371.955
-368.815
-365.651
-362.462
-359.249
-356.01
-352.747
-349.458
-346.143
-342.803
-339.437
-336.045
-332.627
-329.182
-325.71
-322.212
-318.687
-315.134
-311.554
-307.946
-304.31
-300.646
-296.954
-293.233
-289.483
-285.705
-281.897
-278.059
-274.192
-270.294
-266.367
-262.408
-258.419
-254.399
-250.346
-246.262
-242.144
-237.994
-233.809
-229.59
-225.335
-221.042
-216.714
-212.35
-207.961
-203.551
-199.162
-600.648
-600.575
-600.451
-600.278
-600.055
-599.782
-599.462
-599.094
-598.68
-598.223
-597.724
-597.185
-596.608
-595.996
-595.351
-594.675
-593.971
-593.239
-592.482
-591.701
-590.897
-590.073
-589.228
-588.363
-587.48
-586.578
-585.659
-584.721
-583.765
-582.792
-581.802
-580.793
-579.766
-578.722
-577.659
-576.577
-575.477
-574.358
-573.219
-572.062
-570.884
-569.687
-568.47
-567.233
-565.975
-564.697
-563.399
-562.08
-560.74
-559.38
-557.998
-556.596
-555.173
-553.729
-552.263
-550.777
-549.27
-547.743
-546.194
-544.624
-543.033
-541.422
-539.79
-538.138
-536.464
-534.771
-533.056
-531.321
-529.566
-527.79
-525.995
-524.178
-522.342
-520.486
-518.609
-516.713
-514.796
-512.86
-510.903
-508.927
-506.931
-504.915
-502.879
-500.824
-498.748
-496.653
-494.539
-492.404
-490.25
-488.076
-485.882
-483.668
-481.435
-479.182
-476.908
-474.615
-472.302
-469.969
-467.616
-465.243
-462.85
-460.437
-458.003
-455.549
-453.074
-450.579
-448.064
-445.527
-442.97
-440.392
-437.794
-435.174
-432.533
-429.87
-427.187
-424.481
-421.754
-419.006
-416.235
-413.443
-410.628
-407.792
-404.932
-402.051
-399.146
-396.219
-393.269
-390.295
-387.299
-384.279
-381.235
-378.167
-375.076
-371.961
-368.821
-365.657
-362.468
-359.254
-356.016
-352.752
-349.463
-346.149
-342.809
-339.442
-336.05
-332.632
-329.187
-325.715
-322.217
-318.692
-315.139
-311.559
-307.951
-304.315
-300.651
-296.959
-293.238
-289.488
-285.709
-281.901
-278.064
-274.197
-270.299
-266.372
-262.414
-258.424
-254.404
-250.352
-246.268
-242.151
-238.001
-233.817
-229.599
-225.346
-221.058
-216.735
-212.38
-208.001
-203.604
-199.219
-602.403
-602.319
-602.179
-601.984
-601.733
-601.428
-601.069
-600.658
-600.198
-599.69
-599.139
-598.545
-597.914
-597.246
-596.546
-595.816
-595.058
-594.274
-593.467
-592.639
-591.79
-590.922
-590.036
-589.133
-588.213
-587.276
-586.324
-585.356
-584.371
-583.371
-582.355
-581.322
-580.272
-579.205
-578.122
-577.021
-575.901
-574.764
-573.609
-572.434
-571.241
-570.029
-568.797
-567.546
-566.275
-564.985
-563.674
-562.343
-560.991
-559.62
-558.228
-556.815
-555.382
-553.928
-552.454
-550.96
-549.444
-547.908
-546.352
-544.774
-543.177
-541.559
-539.92
-538.261
-536.582
-534.882
-533.162
-531.422
-529.662
-527.881
-526.081
-524.261
-522.42
-520.56
-518.679
-516.779
-514.859
-512.919
-510.96
-508.981
-506.982
-504.963
-502.925
-500.867
-498.789
-496.692
-494.575
-492.439
-490.283
-488.107
-485.911
-483.696
-481.461
-479.207
-476.932
-474.638
-472.324
-469.99
-467.636
-465.262
-462.868
-460.453
-458.019
-455.564
-453.089
-450.593
-448.077
-445.54
-442.982
-440.404
-437.805
-435.184
-432.543
-429.88
-427.196
-424.49
-421.763
-419.014
-416.244
-413.451
-410.636
-407.799
-404.94
-402.058
-399.153
-396.226
-393.275
-390.302
-387.305
-384.285
-381.241
-378.173
-375.082
-371.966
-368.827
-365.662
-362.473
-359.26
-356.021
-352.758
-349.469
-346.154
-342.814
-339.448
-336.055
-332.637
-329.192
-325.72
-322.222
-318.697
-315.144
-311.563
-307.956
-304.32
-300.656
-296.963
-293.243
-289.493
-285.714
-281.906
-278.069
-274.202
-270.304
-266.377
-262.419
-258.43
-254.409
-250.357
-246.274
-242.157
-238.008
-233.826
-229.609
-225.359
-221.074
-216.756
-212.409
-208.038
-203.65
-199.267
-604.471
-604.374
-604.216
-603.995
-603.71
-603.362
-602.955
-602.49
-601.971
-601.401
-600.784
-600.123
-599.423
-598.687
-597.919
-597.123
-596.3
-595.455
-594.589
-593.704
-592.802
-591.883
-590.95
-590.002
-589.04
-588.064
-587.075
-586.072
-585.055
-584.024
-582.978
-581.918
-580.842
-579.751
-578.643
-577.52
-576.379
-575.222
-574.047
-572.854
-571.643
-570.414
-569.166
-567.899
-566.613
-565.307
-563.982
-562.638
-561.273
-559.889
-558.485
-557.061
-555.617
-554.152
-552.668
-551.163
-549.638
-548.093
-546.528
-544.942
-543.337
-541.711
-540.065
-538.399
-536.713
-535.007
-533.281
-531.535
-529.769
-527.983
-526.177
-524.352
-522.507
-520.642
-518.757
-516.853
-514.929
-512.986
-511.023
-509.04
-507.038
-505.016
-502.975
-500.915
-498.834
-496.735
-494.616
-492.477
-490.319
-488.141
-485.944
-483.727
-481.49
-479.234
-476.958
-474.663
-472.347
-470.012
-467.657
-465.282
-462.886
-460.471
-458.036
-455.58
-453.104
-450.608
-448.091
-445.553
-442.995
-440.416
-437.816
-435.195
-432.553
-429.89
-427.206
-424.5
-421.772
-419.023
-416.252
-413.459
-410.644
-407.807
-404.947
-402.065
-399.16
-396.232
-393.282
-390.308
-387.311
-384.291
-381.247
-378.179
-375.088
-371.972
-368.832
-365.668
-362.479
-359.265
-356.027
-352.763
-349.474
-346.159
-342.819
-339.453
-336.061
-332.642
-329.197
-325.725
-322.227
-318.701
-315.149
-311.568
-307.96
-304.325
-300.661
-296.968
-293.247
-289.498
-285.719
-281.911
-278.074
-274.206
-270.309
-266.382
-262.424
-258.435
-254.415
-250.363
-246.28
-242.164
-238.016
-233.834
-229.62
-225.371
-221.09
-216.777
-212.436
-208.071
-203.689
-199.305
-606.881
-606.771
-606.592
-606.34
-606.012
-605.613
-605.146
-604.613
-604.02
-603.371
-602.671
-601.927
-601.142
-600.323
-599.473
-598.597
-597.698
-596.779
-595.844
-594.893
-593.929
-592.953
-591.966
-590.967
-589.958
-588.938
-587.907
-586.866
-585.812
-584.747
-583.669
-582.578
-581.474
-580.355
-579.222
-578.073
-576.909
-575.729
-574.533
-573.319
-572.088
-570.84
-569.573
-568.289
-566.986
-565.664
-564.323
-562.964
-561.585
-560.187
-558.77
-557.333
-555.876
-554.4
-552.904
-551.388
-549.853
-548.297
-546.723
-545.128
-543.513
-541.878
-540.224
-538.55
-536.857
-535.144
-533.411
-531.658
-529.886
-528.094
-526.283
-524.452
-522.601
-520.731
-518.842
-516.933
-515.005
-513.058
-511.091
-509.105
-507.099
-505.074
-503.03
-500.966
-498.883
-496.781
-494.659
-492.518
-490.358
-488.178
-485.979
-483.76
-481.522
-479.264
-476.986
-474.689
-472.372
-470.036
-467.679
-465.303
-462.907
-460.49
-458.054
-455.597
-453.12
-450.623
-448.106
-445.567
-443.008
-440.429
-437.828
-435.207
-432.565
-429.901
-427.216
-424.51
-421.782
-419.032
-416.261
-413.467
-410.652
-407.815
-404.955
-402.072
-399.167
-396.239
-393.289
-390.315
-387.318
-384.297
-381.253
-378.186
-375.094
-371.978
-368.838
-365.674
-362.485
-359.271
-356.032
-352.768
-349.479
-346.164
-342.824
-339.458
-336.066
-332.647
-329.202
-325.73
-322.232
-318.706
-315.154
-311.573
-307.965
-304.329
-300.665
-296.973
-293.252
-289.503
-285.724
-281.916
-278.078
-274.211
-270.314
-266.387
-262.429
-258.44
-254.42
-250.369
-246.286
-242.171
-238.024
-233.843
-229.63
-225.384
-221.106
-216.797
-212.461
-208.101
-203.723
-199.337
-609.675
-609.55
-609.349
-609.059
-608.68
-608.216
-607.672
-607.054
-606.367
-605.619
-604.818
-603.969
-603.081
-602.159
-601.21
-600.238
-599.249
-598.245
-597.228
-596.203
-595.168
-594.127
-593.079
-592.024
-590.963
-589.894
-588.818
-587.733
-586.64
-585.538
-584.424
-583.3
-582.164
-581.016
-579.854
-578.679
-577.489
-576.284
-575.064
-573.828
-572.575
-571.306
-570.019
-568.715
-567.394
-566.054
-564.696
-563.32
-561.926
-560.512
-559.08
-557.629
-556.159
-554.669
-553.161
-551.633
-550.086
-548.52
-546.934
-545.329
-543.704
-542.061
-540.398
-538.715
-537.013
-535.292
-533.552
-531.792
-530.013
-528.214
-526.397
-524.56
-522.704
-520.829
-518.934
-517.021
-515.088
-513.136
-511.165
-509.175
-507.165
-505.137
-503.089
-501.022
-498.936
-496.831
-494.706
-492.563
-490.4
-488.218
-486.016
-483.795
-481.555
-479.295
-477.016
-474.717
-472.399
-470.061
-467.703
-465.325
-462.928
-460.51
-458.073
-455.615
-453.137
-450.639
-448.121
-445.582
-443.022
-440.442
-437.841
-435.219
-432.576
-429.912
-427.227
-424.52
-421.791
-419.041
-416.27
-413.476
-410.661
-407.823
-404.963
-402.08
-399.175
-396.247
-393.296
-390.322
-387.325
-384.304
-381.26
-378.192
-375.1
-371.984
-368.844
-365.679
-362.49
-359.276
-356.038
-352.774
-349.484
-346.17
-342.829
-339.463
-336.071
-332.652
-329.207
-325.735
-322.237
-318.711
-315.158
-311.578
-307.97
-304.334
-300.67
-296.978
-293.257
-289.507
-285.729
-281.921
-278.083
-274.216
-270.319
-266.392
-262.434
-258.446
-254.426
-250.375
-246.293
-242.178
-238.032
-233.852
-229.641
-225.397
-221.122
-216.816
-212.484
-208.127
-203.751
-199.363
-612.894
-612.769
-612.541
-612.205
-611.763
-611.218
-610.579
-609.851
-609.046
-608.173
-607.242
-606.264
-605.247
-604.2
-603.131
-602.046
-600.95
-599.846
-598.737
-597.626
-596.513
-595.399
-594.284
-593.167
-592.049
-590.927
-589.802
-588.672
-587.536
-586.393
-585.242
-584.082
-582.912
-581.731
-580.539
-579.334
-578.116
-576.885
-575.639
-574.378
-573.101
-571.809
-570.501
-569.176
-567.835
-566.476
-565.099
-563.705
-562.293
-560.863
-559.415
-557.949
-556.463
-554.96
-553.438
-551.897
-550.338
-548.759
-547.162
-545.546
-543.911
-542.257
-540.584
-538.892
-537.182
-535.452
-533.703
-531.936
-530.149
-528.344
-526.519
-524.676
-522.814
-520.933
-519.033
-517.114
-515.176
-513.219
-511.244
-509.249
-507.236
-505.203
-503.152
-501.082
-498.992
-496.884
-494.757
-492.61
-490.445
-488.26
-486.056
-483.833
-481.591
-479.329
-477.048
-474.747
-472.427
-470.087
-467.728
-465.349
-462.95
-460.532
-458.093
-455.634
-453.156
-450.657
-448.137
-445.597
-443.037
-440.456
-437.854
-435.232
-432.588
-429.924
-427.238
-424.53
-421.802
-419.051
-416.279
-413.485
-410.669
-407.831
-404.971
-402.088
-399.182
-396.254
-393.303
-390.329
-387.331
-384.31
-381.266
-378.198
-375.106
-371.99
-368.85
-365.685
-362.496
-359.282
-356.043
-352.779
-349.49
-346.175
-342.834
-339.468
-336.076
-332.657
-329.212
-325.74
-322.242
-318.716
-315.163
-311.583
-307.975
-304.339
-300.675
-296.982
-293.262
-289.512
-285.733
-281.925
-278.088
-274.221
-270.324
-266.397
-262.439
-258.451
-254.432
-250.381
-246.299
-242.185
-238.04
-233.862
-229.652
-225.41
-221.137
-216.834
-212.505
-208.15
-203.775
-199.384
-616.621
-616.485
-616.231
-615.845
-615.329
-614.685
-613.927
-613.061
-612.104
-611.07
-609.975
-608.832
-607.655
-606.454
-605.24
-604.019
-602.797
-601.578
-600.364
-599.157
-597.957
-596.763
-595.575
-594.391
-593.211
-592.033
-590.855
-589.676
-588.494
-587.309
-586.117
-584.919
-583.713
-582.498
-581.272
-580.036
-578.789
-577.528
-576.255
-574.967
-573.666
-572.349
-571.018
-569.67
-568.307
-566.927
-565.53
-564.117
-562.686
-561.239
-559.773
-558.29
-556.789
-555.271
-553.734
-552.179
-550.606
-549.015
-547.405
-545.777
-544.131
-542.466
-540.783
-539.081
-537.361
-535.622
-533.865
-532.089
-530.294
-528.482
-526.65
-524.8
-522.931
-521.044
-519.138
-517.213
-515.27
-513.308
-511.328
-509.329
-507.311
-505.274
-503.219
-501.145
-499.052
-496.94
-494.81
-492.66
-490.492
-488.305
-486.098
-483.873
-481.628
-479.364
-477.081
-474.779
-472.457
-470.115
-467.755
-465.374
-462.974
-460.554
-458.114
-455.654
-453.174
-450.674
-448.154
-445.613
-443.052
-440.47
-437.868
-435.245
-432.601
-429.935
-427.249
-424.541
-421.812
-419.061
-416.288
-413.494
-410.678
-407.839
-404.979
-402.095
-399.19
-396.261
-393.31
-390.335
-387.338
-384.317
-381.272
-378.204
-375.112
-371.996
-368.855
-365.691
-362.501
-359.287
-356.048
-352.784
-349.495
-346.18
-342.839
-339.473
-336.081
-332.662
-329.217
-325.745
-322.246
-318.721
-315.168
-311.587
-307.979
-304.344
-300.679
-296.987
-293.266
-289.516
-285.738
-281.93
-278.093
-274.226
-270.329
-266.402
-262.444
-258.456
-254.437
-250.387
-246.306
-242.193
-238.048
-233.871
-229.662
-225.422
-221.151
-216.851
-212.524
-208.171
-203.796
-199.402
-620.937
-620.791
-620.516
-620.084
-619.488
-618.726
-617.823
-616.773
-615.619
-614.372
-613.061
-611.706
-610.324
-608.932
-607.54
-606.156
-604.787
-603.436
-602.103
-600.789
-599.492
-598.212
-596.946
-595.691
-594.446
-593.208
-591.974
-590.743
-589.513
-588.282
-587.048
-585.809
-584.565
-583.313
-582.053
-580.784
-579.504
-578.213
-576.91
-575.595
-574.266
-572.923
-571.567
-570.195
-568.808
-567.406
-565.988
-564.554
-563.104
-561.637
-560.153
-558.653
-557.135
-555.6
-554.048
-552.478
-550.891
-549.286
-547.663
-546.023
-544.364
-542.688
-540.993
-539.281
-537.551
-535.802
-534.036
-532.251
-530.448
-528.627
-526.788
-524.931
-523.055
-521.161
-519.249
-517.318
-515.369
-513.402
-511.416
-509.412
-507.39
-505.349
-503.289
-501.211
-499.115
-497
-494.866
-492.713
-490.542
-488.351
-486.142
-483.914
-481.667
-479.401
-477.116
-474.811
-472.488
-470.145
-467.782
-465.4
-462.999
-460.577
-458.136
-455.675
-453.194
-450.693
-448.172
-445.63
-443.068
-440.485
-437.882
-435.258
-432.613
-429.947
-427.26
-424.552
-421.822
-419.071
-416.298
-413.503
-410.687
-407.848
-404.987
-402.103
-399.197
-396.269
-393.317
-390.342
-387.344
-384.323
-381.278
-378.21
-375.118
-372.002
-368.861
-365.696
-362.507
-359.293
-356.054
-352.789
-349.5
-346.185
-342.845
-339.478
-336.086
-332.667
-329.222
-325.75
-322.251
-318.725
-315.172
-311.592
-307.984
-304.348
-300.684
-296.992
-293.271
-289.521
-285.742
-281.935
-278.097
-274.231
-270.334
-266.407
-262.45
-258.462
-254.443
-250.393
-246.312
-242.2
-238.056
-233.88
-229.672
-225.434
-221.165
-216.866
-212.541
-208.189
-203.813
-199.417
-625.972
-625.813
-625.536
-625.092
-624.423
-623.527
-622.442
-621.149
-619.723
-618.169
-616.561
-614.92
-613.272
-611.637
-610.026
-608.449
-606.909
-605.407
-603.942
-602.511
-601.111
-599.738
-598.389
-597.06
-595.746
-594.445
-593.154
-591.869
-590.589
-589.31
-588.031
-586.75
-585.465
-584.175
-582.878
-581.573
-580.26
-578.936
-577.602
-576.257
-574.899
-573.529
-572.146
-570.749
-569.338
-567.912
-566.471
-565.015
-563.544
-562.057
-560.554
-559.035
-557.499
-555.947
-554.378
-552.792
-551.19
-549.571
-547.934
-546.28
-544.609
-542.92
-541.214
-539.491
-537.75
-535.991
-534.215
-532.421
-530.609
-528.78
-526.933
-525.068
-523.185
-521.284
-519.365
-517.428
-515.473
-513.5
-511.509
-509.5
-507.473
-505.427
-503.363
-501.281
-499.18
-497.062
-494.924
-492.768
-490.594
-488.4
-486.189
-483.958
-481.708
-479.44
-477.152
-474.846
-472.52
-470.175
-467.811
-465.427
-463.024
-460.601
-458.159
-455.696
-453.214
-450.712
-448.19
-445.647
-443.084
-440.501
-437.897
-435.272
-432.626
-429.96
-427.272
-424.563
-421.833
-419.081
-416.308
-413.513
-410.696
-407.856
-404.995
-402.111
-399.205
-396.276
-393.324
-390.349
-387.351
-384.33
-381.285
-378.216
-375.124
-372.008
-368.867
-365.702
-362.512
-359.298
-356.059
-352.795
-349.505
-346.19
-342.849
-339.483
-336.09
-332.672
-329.226
-325.754
-322.256
-318.73
-315.177
-311.597
-307.989
-304.353
-300.688
-296.996
-293.275
-289.525
-285.747
-281.939
-278.102
-274.235
-270.339
-266.412
-262.455
-258.467
-254.449
-250.399
-246.319
-242.207
-238.063
-233.889
-229.682
-225.445
-221.178
-216.881
-212.557
-208.205
-203.829
-199.43
-631.82
-631.707
-631.559
-631.258
-630.569
-629.532
-628.181
-626.5
-624.655
-622.574
-620.545
-618.508
-616.504
-614.557
-612.679
-610.872
-609.136
-607.468
-605.859
-604.305
-602.797
-601.329
-599.895
-598.488
-597.105
-595.74
-594.389
-593.048
-591.716
-590.388
-589.062
-587.736
-586.409
-585.079
-583.743
-582.401
-581.052
-579.695
-578.328