/*--------------------------------*- C++ -*----------------------------------*\
| =========                 |                                                 |
| \\      /  F ield         | OpenFOAM: The Open Source CFD Toolbox           |
|  \\    /   O peration     | Version:  2.1.x                                 |
|   \\  /    A nd           | Web:      www.OpenFOAM.org                      |
|    \\/     M anipulation  |                                                 |
\*---------------------------------------------------------------------------*/
FoamFile
{
    version     2.0;
    format      ascii;
    class       surfaceScalarField;
    location    "0.001";
    object      phi;
}
// * * * * * * * * * * * * * * * * * * * * * * * * * * * * * * * * * * * * * //

dimensions      [0 3 -1 0 0 0 0];

internalField   nonuniform List<scalar> 
24170
(
1.90221e-06
1.28671e-06
1.17473e-06
7.27477e-07
8.75787e-07
2.98943e-07
7.43913e-07
1.31873e-07
7.24639e-07
1.92741e-08
7.60326e-07
-3.5687e-08
8.2755e-07
-6.72244e-08
8.4502e-07
-1.747e-08
8.70498e-07
-2.54781e-08
9.46876e-07
-7.63777e-08
9.25341e-07
2.15349e-08
1.03207e-06
-1.06729e-07
1.17419e-06
-1.42116e-07
1.13077e-06
4.34154e-08
1.30152e-06
-1.70748e-07
1.7536e-06
-4.52085e-07
1.72311e-06
3.04946e-08
-2.50608e-07
1.97372e-06
3.40533e-06
1.47492e-06
2.95252e-06
1.18028e-06
2.61065e-06
6.40815e-07
2.37903e-06
3.63494e-07
2.29925e-06
9.90504e-08
2.32448e-06
-6.09083e-08
2.43973e-06
-1.82483e-07
2.43561e-06
-1.33423e-08
2.55585e-06
-1.45721e-07
2.66892e-06
-1.89451e-07
2.57512e-06
1.15341e-07
2.90043e-06
-4.32041e-07
3.10343e-06
-3.45116e-07
2.85056e-06
2.9628e-07
3.28104e-06
-6.01222e-07
4.05876e-06
-1.22981e-06
4.15869e-06
-6.94344e-08
-4.89191e-07
4.39727e-06
4.11748e-06
1.20314e-06
4.06959e-06
1.22818e-06
3.91726e-06
7.93139e-07
3.78147e-06
4.99282e-07
3.68962e-06
1.90901e-07
3.71464e-06
-8.59303e-08
3.75843e-06
-2.26267e-07
3.74609e-06
-1.00798e-09
3.96056e-06
-3.60191e-07
3.88549e-06
-1.14377e-07
3.90007e-06
1.0076e-07
4.31526e-06
-8.47231e-07
4.21943e-06
-2.49285e-07
4.16571e-06
3.49996e-07
4.79681e-06
-1.23232e-06
4.78909e-06
-1.22209e-06
4.77847e-06
-5.88144e-08
-1.50167e-06
5.79095e-06
4.50407e-06
9.69021e-07
4.58731e-06
1.14493e-06
4.5971e-06
7.83348e-07
4.57824e-06
5.18138e-07
4.56338e-06
2.05762e-07
4.53766e-06
-6.02082e-08
4.4774e-06
-1.6601e-07
4.64025e-06
-1.63854e-07
4.47016e-06
-1.90098e-07
4.61323e-06
-2.57455e-07
4.9043e-06
-1.90301e-07
4.52982e-06
-4.72755e-07
4.65037e-06
-3.69839e-07
5.35493e-06
-3.5456e-07
5.09705e-06
-9.74441e-07
4.67222e-06
-7.9726e-07
5.3885e-06
-7.75093e-07
-1.90319e-06
5.79003e-06
4.79492e-06
7.55246e-07
4.98114e-06
9.58712e-07
5.05989e-06
7.04599e-07
5.09093e-06
4.87098e-07
5.08276e-06
2.13937e-07
5.01827e-06
4.28261e-09
5.02649e-06
-1.74236e-07
5.01596e-06
-1.53321e-07
5.017e-06
-1.91136e-07
5.1868e-06
-4.27252e-07
5.1292e-06
-1.32703e-07
5.17876e-06
-5.22321e-07
5.47671e-06
-6.6778e-07
5.53869e-06
-4.16539e-07
5.34381e-06
-7.79571e-07
5.71617e-06
-1.16962e-06
6.34235e-06
-1.40128e-06
-1.61397e-06
6.05313e-06
5.35514e-06
6.32786e-07
5.49398e-06
8.1987e-07
5.54804e-06
6.50542e-07
5.58305e-06
4.52089e-07
5.56977e-06
2.27212e-07
5.55638e-06
1.7675e-08
5.5107e-06
-1.28559e-07
5.52035e-06
-1.62973e-07
5.62157e-06
-2.92356e-07
5.54103e-06
-3.46709e-07
5.70639e-06
-2.98069e-07
5.83723e-06
-6.53156e-07
5.82837e-06
-6.58922e-07
5.90677e-06
-4.94939e-07
6.08052e-06
-9.53319e-07
6.40255e-06
-1.49165e-06
6.33117e-06
-1.3299e-06
-1.16404e-06
5.88125e-06
5.7033e-06
4.25295e-07
5.92297e-06
6.00206e-07
6.02105e-06
5.52456e-07
6.05145e-06
4.21693e-07
6.04564e-06
2.33016e-07
6.0247e-06
3.86181e-08
6.00896e-06
-1.12819e-07
6.08302e-06
-2.37034e-07
6.05916e-06
-2.68496e-07
6.16568e-06
-4.53231e-07
6.31406e-06
-4.46449e-07
6.24694e-06
-5.86033e-07
6.33956e-06
-7.51538e-07
6.65557e-06
-8.10951e-07
6.71906e-06
-1.01682e-06
6.49601e-06
-1.2686e-06
6.56893e-06
-1.40282e-06
-1.77044e-06
7.17533e-06
4.51899e-06
2.76033e-07
4.62882e-06
4.90375e-07
4.67178e-06
5.09498e-07
4.67673e-06
4.16745e-07
4.66773e-06
2.42009e-07
4.66396e-06
4.23926e-08
4.68114e-06
-1.30001e-07
4.69338e-06
-2.49276e-07
4.76674e-06
-3.41854e-07
4.78711e-06
-4.73605e-07
4.83662e-06
-4.95956e-07
4.92357e-06
-6.72981e-07
4.99419e-06
-8.22153e-07
5.04175e-06
-8.58515e-07
5.03899e-06
-1.01406e-06
5.14963e-06
-1.37924e-06
5.3894e-06
-1.64259e-06
-1.52312e-06
5.14208e-06
5.26153e-06
7.03049e-08
5.35111e-06
4.00798e-07
5.39258e-06
4.68027e-07
5.42003e-06
3.89298e-07
5.44195e-06
2.2009e-07
5.46291e-06
2.1429e-08
5.46745e-06
-1.34538e-07
5.50624e-06
-2.88074e-07
5.53169e-06
-3.67304e-07
5.56142e-06
-5.03332e-07
5.66749e-06
-6.02023e-07
5.6959e-06
-7.0139e-07
5.70393e-06
-8.30185e-07
5.82949e-06
-9.84079e-07
5.97112e-06
-1.15569e-06
5.94801e-06
-1.35613e-06
5.70867e-06
-1.40325e-06
-1.59328e-06
5.77884e-06
6.11508e-06
2.33271e-07
6.1206e-06
3.95272e-07
6.17926e-06
4.09375e-07
6.24409e-06
3.24467e-07
6.29049e-06
1.7369e-07
6.31403e-06
-2.11811e-09
6.34384e-06
-1.64348e-07
6.36784e-06
-3.1207e-07
6.42106e-06
-4.2052e-07
6.47967e-06
-5.61942e-07
6.5172e-06
-6.3956e-07
6.58456e-06
-7.68748e-07
6.6792e-06
-9.24824e-07
6.72858e-06
-1.03345e-06
6.71502e-06
-1.14213e-06
6.68027e-06
-1.32139e-06
6.83283e-06
-1.55581e-06
-1.87913e-06
7.11868e-06
7.07348e-06
1.60901e-07
7.15727e-06
3.1148e-07
7.22792e-06
3.38724e-07
7.2878e-06
2.6459e-07
7.32493e-06
1.36557e-07
7.34849e-06
-2.5672e-08
7.36914e-06
-1.84998e-07
7.4032e-06
-3.46131e-07
7.45521e-06
-4.72538e-07
7.49269e-06
-5.99418e-07
7.56597e-06
-7.12842e-07
7.63514e-06
-8.37915e-07
7.64976e-06
-9.39444e-07
7.69474e-06
-1.07844e-06
7.77386e-06
-1.22125e-06
7.83646e-06
-1.38399e-06
7.76922e-06
-1.48857e-06
-1.42249e-06
7.31258e-06
8.24142e-06
1.36448e-07
8.26613e-06
2.86771e-07
8.2833e-06
3.21551e-07
8.28984e-06
2.58053e-07
8.31392e-06
1.12475e-07
8.36429e-06
-7.60385e-08
8.43643e-06
-2.57143e-07
8.51235e-06
-4.22045e-07
8.58906e-06
-5.49246e-07
8.66398e-06
-6.74339e-07
8.72651e-06
-7.75372e-07
8.77393e-06
-8.85342e-07
8.83226e-06
-9.97766e-07
8.87571e-06
-1.12189e-06
8.8699e-06
-1.21543e-06
8.80695e-06
-1.32104e-06
8.77067e-06
-1.45229e-06
-1.71481e-06
9.06299e-06
9.47721e-06
1.87164e-07
9.54741e-06
2.16573e-07
9.60916e-06
2.59799e-07
9.66528e-06
2.01932e-07
9.72526e-06
5.25022e-08
9.79235e-06
-1.4313e-07
9.85975e-06
-3.24544e-07
9.9227e-06
-4.84997e-07
9.98509e-06
-6.11641e-07
1.00368e-05
-7.26039e-07
1.00843e-05
-8.2285e-07
1.01282e-05
-9.29253e-07
1.01494e-05
-1.01903e-06
1.01493e-05
-1.12175e-06
1.0151e-05
-1.21713e-06
1.01557e-05
-1.32577e-06
1.01183e-05
-1.41482e-06
-1.43918e-06
9.84264e-06
1.10001e-05
1.75763e-07
1.10079e-05
2.08813e-07
1.10654e-05
2.02252e-07
1.11236e-05
1.43737e-07
1.11877e-05
-1.16093e-08
1.12662e-05
-2.21627e-07
1.13547e-05
-4.12975e-07
1.14379e-05
-5.68265e-07
1.15104e-05
-6.84096e-07
1.15683e-05
-7.83948e-07
1.16119e-05
-8.66459e-07
1.16355e-05
-9.52862e-07
1.16444e-05
-1.02794e-06
1.16368e-05
-1.11416e-06
1.1607e-05
-1.18732e-06
1.15444e-05
-1.26311e-06
1.14636e-05
-1.33407e-06
-1.41472e-06
1.14391e-05
1.2733e-05
1.13985e-07
1.28576e-05
8.42422e-08
1.30291e-05
3.0714e-08
1.31936e-05
-2.06808e-08
1.33106e-05
-1.28611e-07
1.33735e-05
-2.8459e-07
1.34e-05
-4.39432e-07
1.34093e-05
-5.77558e-07
1.34141e-05
-6.88913e-07
1.34146e-05
-7.84505e-07
1.34103e-05
-8.62129e-07
1.33965e-05
-9.39019e-07
1.337e-05
-1.00151e-06
1.33271e-05
-1.07123e-06
1.32695e-05
-1.1297e-06
1.31971e-05
-1.19073e-06
1.31047e-05
-1.2417e-06
-1.27909e-06
1.29691e-05
1.49714e-05
8.5052e-08
1.50887e-05
-3.30545e-08
1.52327e-05
-1.13259e-07
1.53614e-05
-1.49369e-07
1.54471e-05
-2.14306e-07
1.5476e-05
-3.13529e-07
1.54757e-05
-4.3915e-07
1.54669e-05
-5.6871e-07
1.54561e-05
-6.78095e-07
1.54402e-05
-7.68606e-07
1.54164e-05
-8.38353e-07
1.53784e-05
-9.01064e-07
1.53276e-05
-9.50677e-07
1.52611e-05
-1.00469e-06
1.51779e-05
-1.04657e-06
1.50762e-05
-1.08905e-06
1.49573e-05
-1.12274e-06
-1.14893e-06
1.48271e-05
1.74699e-05
2.89944e-07
1.744e-05
-3.12476e-09
1.74362e-05
-1.09478e-07
1.74349e-05
-1.48094e-07
1.74574e-05
-2.36772e-07
1.75228e-05
-3.78882e-07
1.76023e-05
-5.18651e-07
1.76665e-05
-6.33002e-07
1.77035e-05
-7.15067e-07
1.77102e-05
-7.75324e-07
1.76891e-05
-8.17246e-07
1.76418e-05
-8.53697e-07
1.75735e-05
-8.82413e-07
1.74841e-05
-9.15263e-07
1.73766e-05
-9.39091e-07
1.72521e-05
-9.64527e-07
1.71124e-05
-9.83101e-07
-9.95181e-07
1.69587e-05
1.74551e-05
-2.63373e-08
1.75047e-05
-5.27436e-08
1.74894e-05
-9.42402e-08
1.7544e-05
-2.02631e-07
1.76512e-05
-3.4396e-07
1.77528e-05
-4.80561e-07
1.7821e-05
-5.86755e-07
1.78474e-05
-6.59473e-07
1.78368e-05
-7.0449e-07
1.77962e-05
-7.34707e-07
1.77329e-05
-7.53963e-07
1.76515e-05
-7.72262e-07
1.75555e-05
-7.86353e-07
1.74446e-05
-8.04395e-07
1.73215e-05
-8.16033e-07
1.71868e-05
-8.29759e-07
1.70419e-05
-8.3828e-07
-8.42187e-07
1.68889e-05
1.57225e-05
-7.61154e-08
1.56656e-05
4.16948e-09
1.56248e-05
-5.347e-08
1.56135e-05
-1.91329e-07
1.56442e-05
-3.74616e-07
1.56995e-05
-5.35902e-07
1.57481e-05
-6.35352e-07
1.57692e-05
-6.80561e-07
1.57588e-05
-6.94062e-07
1.57204e-05
-6.9628e-07
1.56597e-05
-6.93311e-07
1.55808e-05
-6.93369e-07
1.5488e-05
-6.93494e-07
1.53827e-05
-6.99162e-07
1.52681e-05
-7.01411e-07
1.51451e-05
-7.06761e-07
1.50155e-05
-7.0869e-07
-7.07862e-07
1.48812e-05
1.36082e-05
-3.28819e-07
1.39107e-05
-2.98299e-07
1.41399e-05
-2.82716e-07
1.4273e-05
-3.2443e-07
1.43116e-05
-4.13209e-07
1.42864e-05
-5.10666e-07
1.42303e-05
-5.79213e-07
1.41618e-05
-6.12072e-07
1.4087e-05
-6.19272e-07
1.40063e-05
-6.1558e-07
1.39198e-05
-6.06833e-07
1.38269e-05
-6.00493e-07
1.37282e-05
-5.94764e-07
1.36232e-05
-5.9422e-07
1.35135e-05
-5.91634e-07
1.33991e-05
-5.92391e-07
1.32813e-05
-5.90879e-07
-5.87913e-07
1.31613e-05
1.22957e-05
-3.09132e-07
1.24749e-05
-4.77434e-07
1.2679e-05
-4.86815e-07
1.28377e-05
-4.83143e-07
1.29086e-05
-4.84102e-07
1.2888e-05
-4.90144e-07
1.28101e-05
-5.01255e-07
1.27094e-05
-5.11368e-07
1.26043e-05
-5.14179e-07
1.25003e-05
-5.11627e-07
1.23984e-05
-5.0494e-07
1.22973e-05
-4.99364e-07
1.2196e-05
-4.93496e-07
1.20932e-05
-4.91381e-07
1.1989e-05
-4.8742e-07
1.18829e-05
-4.86316e-07
1.17755e-05
-4.83499e-07
-4.80008e-07
1.16676e-05
1.11258e-05
-3.73587e-07
1.12012e-05
-5.52847e-07
1.12693e-05
-5.54872e-07
1.12997e-05
-5.13509e-07
1.12987e-05
-4.83131e-07
1.12813e-05
-4.72728e-07
1.1252e-05
-4.71999e-07
1.12091e-05
-4.68434e-07
1.11528e-05
-4.57913e-07
1.10847e-05
-4.43479e-07
1.10073e-05
-4.27553e-07
1.0923e-05
-4.15083e-07
1.08343e-05
-4.04824e-07
1.07423e-05
-3.99325e-07
1.06482e-05
-3.93352e-07
1.05524e-05
-3.90477e-07
1.04556e-05
-3.86775e-07
-3.83239e-07
1.03589e-05
1.02329e-05
-3.7575e-07
1.01813e-05
-5.0117e-07
1.01592e-05
-5.32822e-07
1.0157e-05
-5.11298e-07
1.01517e-05
-4.77837e-07
1.01294e-05
-4.50422e-07
1.00888e-05
-4.31371e-07
1.00337e-05
-4.13326e-07
9.9678e-06
-3.92058e-07
9.8934e-06
-3.69083e-07
9.81332e-06
-3.4747e-07
9.72969e-06
-3.31451e-07
9.64441e-06
-3.19546e-07
9.55784e-06
-3.12752e-07
9.47069e-06
-3.06203e-07
9.38289e-06
-3.02677e-07
9.29499e-06
-2.98875e-07
-2.95736e-07
9.20748e-06
8.88391e-06
-2.94629e-07
8.95242e-06
-5.69681e-07
9.06045e-06
-6.40856e-07
9.13895e-06
-5.89793e-07
9.15733e-06
-4.96216e-07
9.12104e-06
-4.14137e-07
9.0563e-06
-3.66631e-07
8.98287e-06
-3.39893e-07
8.90685e-06
-3.1604e-07
8.82829e-06
-2.90519e-07
8.74842e-06
-2.67607e-07
8.66805e-06
-2.51076e-07
8.58823e-06
-2.39728e-07
8.50845e-06
-2.32976e-07
8.42878e-06
-2.26526e-07
8.34907e-06
-2.22968e-07
8.26953e-06
-2.1934e-07
-2.16579e-07
8.19038e-06
8.03011e-06
-4.29775e-07
8.15584e-06
-6.95409e-07
8.25536e-06
-7.40377e-07
8.30476e-06
-6.3919e-07
8.28814e-06
-4.79597e-07
8.21578e-06
-3.41771e-07
8.12432e-06
-2.75173e-07
8.03678e-06
-2.52356e-07
7.95562e-06
-2.34875e-07
7.87653e-06
-2.11436e-07
7.79934e-06
-1.90416e-07
7.72364e-06
-1.75371e-07
7.65021e-06
-1.66299e-07
7.57763e-06
-1.60396e-07
7.50547e-06
-1.54372e-07
7.43361e-06
-1.51102e-07
7.36194e-06
-1.47676e-07
-1.44735e-07
7.2901e-06
7.09402e-06
-5.99545e-07
7.29762e-06
-8.99009e-07
7.46144e-06
-9.04192e-07
7.55751e-06
-7.35267e-07
7.54791e-06
-4.69991e-07
7.45059e-06
-2.4445e-07
7.32817e-06
-1.52756e-07
7.21829e-06
-1.42476e-07
7.12383e-06
-1.40415e-07
7.03796e-06
-1.25561e-07
6.95934e-06
-1.11802e-07
6.88583e-06
-1.01856e-07
6.8176e-06
-9.80757e-08
6.75107e-06
-9.38615e-08
6.68613e-06
-8.94356e-08
6.62191e-06
-8.68839e-08
6.5575e-06
-8.32607e-08
-7.93968e-08
6.49216e-06
6.47836e-06
-6.85531e-07
6.67743e-06
-1.09808e-06
6.78519e-06
-1.01195e-06
6.81351e-06
-7.63582e-07
6.74939e-06
-4.05879e-07
6.62509e-06
-1.20145e-07
6.5026e-06
-3.02688e-08
6.40847e-06
-4.83478e-08
6.33148e-06
-6.34253e-08
6.26031e-06
-5.43859e-08
6.19377e-06
-4.52659e-08
6.12982e-06
-3.78999e-08
6.07117e-06
-3.94316e-08
6.01208e-06
-3.47656e-08
5.9555e-06
-3.28568e-08
5.89941e-06
-3.07954e-08
5.84265e-06
-2.65063e-08
-2.04769e-08
5.78373e-06
5.92394e-06
-8.48111e-07
6.06787e-06
-1.24201e-06
6.05028e-06
-9.94368e-07
5.97889e-06
-6.92193e-07
5.887e-06
-3.13991e-07
5.7885e-06
-2.16411e-08
5.69708e-06
6.1152e-08
5.62097e-06
2.77647e-08
5.55545e-06
2.09503e-09
5.49517e-06
5.88796e-09
5.44031e-06
9.5974e-09
5.38868e-06
1.37308e-08
5.34199e-06
7.25967e-09
5.295e-06
1.22185e-08
5.25163e-06
1.05103e-08
5.20808e-06
1.27587e-08
5.16376e-06
1.78137e-08
2.57223e-08
5.11756e-06
5.13804e-06
-1.03272e-06
4.89572e-06
-9.99687e-07
4.53315e-06
-6.31805e-07
4.21758e-06
-3.76624e-07
4.04238e-06
-1.38789e-07
4.00162e-06
1.91168e-08
4.01345e-06
4.93292e-08
4.01913e-06
2.2087e-08
4.01473e-06
6.48815e-09
4.01098e-06
9.63635e-09
4.00739e-06
1.31884e-08
4.00569e-06
1.54331e-08
3.99993e-06
1.30187e-08
3.99641e-06
1.57438e-08
3.99245e-06
1.44644e-08
3.98692e-06
1.82897e-08
3.99019e-06
1.45408e-08
2.65784e-08
3.98934e-06
3.43563e-06
2.43595e-06
1.80414e-06
1.42752e-06
1.28873e-06
1.30785e-06
1.35717e-06
1.37926e-06
1.38575e-06
1.39539e-06
1.40857e-06
1.42401e-06
1.43703e-06
1.45277e-06
1.46723e-06
1.48552e-06
1.50007e-06
1.52664e-06
8.56762e-08
-8.56762e-08
1.81009e-07
-9.53329e-08
2.77842e-07
-9.68333e-08
3.75614e-07
-9.77715e-08
4.74247e-07
-9.86331e-08
5.73699e-07
-9.9452e-08
6.73925e-07
-1.00226e-07
7.74875e-07
-1.0095e-07
8.76489e-07
-1.01613e-07
9.78696e-07
-1.02207e-07
1.08141e-06
-1.02719e-07
1.18455e-06
-1.0314e-07
1.28801e-06
-1.03458e-07
1.39168e-06
-1.03664e-07
1.49543e-06
-1.03748e-07
1.59913e-06
-1.03701e-07
1.70264e-06
-1.03515e-07
1.80583e-06
-1.03184e-07
1.90853e-06
-1.02703e-07
2.0106e-06
-1.02069e-07
2.11188e-06
-1.01283e-07
2.21223e-06
-1.00345e-07
2.31148e-06
-9.92576e-08
2.4095e-06
-9.80197e-08
2.50614e-06
-9.66383e-08
2.60127e-06
-9.5127e-08
2.69476e-06
-9.34906e-08
2.78649e-06
-9.17272e-08
2.87634e-06
-8.98504e-08
2.96422e-06
-8.7882e-08
3.05005e-06
-8.58303e-08
3.13375e-06
-8.36957e-08
3.21523e-06
-8.14853e-08
3.29445e-06
-7.92163e-08
3.37136e-06
-7.69094e-08
3.44593e-06
-7.45721e-08
3.51813e-06
-7.22e-08
3.58793e-06
-6.98005e-08
3.65533e-06
-6.73998e-08
3.72034e-06
-6.50114e-08
3.78296e-06
-6.26229e-08
3.8432e-06
-6.0233e-08
3.90107e-06
-5.78697e-08
3.95662e-06
-5.5551e-08
4.00988e-06
-5.32602e-08
4.06086e-06
-5.09849e-08
4.10961e-06
-4.87488e-08
4.15619e-06
-4.65766e-08
4.20064e-06
-4.44566e-08
4.24301e-06
-4.2366e-08
4.28333e-06
-4.03156e-08
4.32166e-06
-3.8333e-08
4.35808e-06
-3.64188e-08
4.39263e-06
-3.45487e-08
4.42534e-06
-3.27162e-08
4.45629e-06
-3.09432e-08
4.48553e-06
-2.92429e-08
4.51313e-06
-2.76002e-08
4.53913e-06
-2.59973e-08
4.56357e-06
-2.44413e-08
4.58652e-06
-2.29494e-08
4.60804e-06
-2.15209e-08
4.62818e-06
-2.0139e-08
4.64697e-06
-1.87964e-08
4.66448e-06
-1.75035e-08
4.68075e-06
-1.62691e-08
4.69583e-06
-1.50866e-08
4.70978e-06
-1.39432e-08
4.72261e-06
-1.28379e-08
4.73439e-06
-1.17792e-08
4.74516e-06
-1.07697e-08
4.75496e-06
-9.80148e-09
4.76383e-06
-8.86669e-09
4.7718e-06
-7.96713e-09
4.77891e-06
-7.10857e-09
4.7852e-06
-6.28982e-09
4.7907e-06
-5.50357e-09
4.79544e-06
-4.74567e-09
4.79946e-06
-4.01964e-09
4.80279e-06
-3.32889e-09
4.80546e-06
-2.67009e-09
4.8075e-06
-2.03612e-09
4.80892e-06
-1.42497e-09
4.80977e-06
-8.43706e-10
4.81008e-06
-3.08954e-10
4.8099e-06
1.80066e-10
4.80916e-06
7.34987e-10
4.80793e-06
1.23409e-09
4.80622e-06
1.7079e-09
4.80407e-06
2.15348e-09
4.80149e-06
2.57572e-09
4.79851e-06
2.97858e-09
4.79514e-06
3.36893e-09
4.7914e-06
3.74664e-09
4.78729e-06
4.10428e-09
4.78285e-06
4.44229e-09
4.77808e-06
4.76633e-09
4.773e-06
5.08044e-09
4.76762e-06
5.38565e-09
4.76194e-06
5.67906e-09
4.75598e-06
5.95776e-09
4.74976e-06
6.22206e-09
4.74328e-06
6.4757e-09
4.73656e-06
6.72251e-09
4.7296e-06
6.96322e-09
4.7224e-06
7.19506e-09
4.71499e-06
7.41586e-09
4.70736e-06
7.62624e-09
4.69953e-06
7.8286e-09
4.69151e-06
8.02589e-09
4.68329e-06
8.21886e-09
4.67488e-06
8.4063e-09
4.66629e-06
8.58693e-09
4.65753e-06
8.76082e-09
4.6486e-06
8.92871e-09
4.63951e-06
9.092e-09
4.63026e-06
9.25169e-09
4.62085e-06
9.40806e-09
4.61129e-06
9.56142e-09
4.60158e-06
9.71148e-09
4.59172e-06
9.85789e-09
4.58172e-06
1.00001e-08
4.57158e-06
1.01382e-08
4.56131e-06
1.02732e-08
4.5509e-06
1.04065e-08
4.54036e-06
1.05391e-08
4.52969e-06
1.06709e-08
4.51889e-06
1.08007e-08
4.50797e-06
1.0928e-08
4.49691e-06
1.10529e-08
4.48574e-06
1.11758e-08
4.47444e-06
1.1298e-08
4.46302e-06
1.14204e-08
4.45147e-06
1.15431e-08
4.43981e-06
1.16655e-08
4.42802e-06
1.17869e-08
4.41612e-06
1.19068e-08
4.40409e-06
1.20258e-08
4.39194e-06
1.2145e-08
4.37968e-06
1.22649e-08
4.36729e-06
1.23852e-08
4.35479e-06
1.25055e-08
4.34216e-06
1.26257e-08
4.32942e-06
1.27457e-08
4.31655e-06
1.28654e-08
4.30357e-06
1.29857e-08
4.29046e-06
1.31076e-08
4.27723e-06
1.3231e-08
4.26387e-06
1.33556e-08
4.25039e-06
1.34814e-08
4.23678e-06
1.36084e-08
4.22305e-06
1.37365e-08
4.20918e-06
1.38664e-08
4.19518e-06
1.3999e-08
4.18105e-06
1.41346e-08
4.16677e-06
1.42748e-08
4.15235e-06
1.44202e-08
4.13778e-06
1.45715e-08
4.12305e-06
1.47309e-08
4.10815e-06
1.48993e-08
4.09307e-06
1.50795e-08
4.07779e-06
1.52752e-08
4.06231e-06
1.54892e-08
4.04658e-06
1.57273e-08
4.03058e-06
1.59981e-08
4.01427e-06
1.63084e-08
3.9976e-06
1.66709e-08
3.9805e-06
1.71046e-08
3.96287e-06
1.76295e-08
3.94458e-06
1.82844e-08
3.92547e-06
1.91141e-08
3.90528e-06
2.01905e-08
3.88362e-06
2.16623e-08
3.86008e-06
2.3537e-08
3.8332e-06
2.6874e-08
3.8039e-06
2.9307e-08
3.7613e-06
4.26004e-08
3.72265e-06
3.86498e-08
3.58313e-06
1.39513e-07
1.22726e-07
3.46041e-06
8.54693e-08
-1.71145e-07
1.82517e-07
-1.92381e-07
2.81079e-07
-1.95395e-07
3.80566e-07
-1.97259e-07
4.80948e-07
-1.99015e-07
5.82207e-07
-2.00712e-07
6.84319e-07
-2.02338e-07
7.87244e-07
-2.03875e-07
8.90934e-07
-2.05303e-07
9.95328e-07
-2.066e-07
1.10035e-06
-2.07745e-07
1.20593e-06
-2.08714e-07
1.31195e-06
-2.09485e-07
1.41832e-06
-2.10034e-07
1.52492e-06
-2.10342e-07
1.63161e-06
-2.10389e-07
1.73825e-06
-2.10158e-07
1.8447e-06
-2.09637e-07
1.95082e-06
-2.08825e-07
2.05647e-06
-2.07712e-07
2.16147e-06
-2.06284e-07
2.26566e-06
-2.04542e-07
2.36891e-06
-2.02506e-07
2.47108e-06
-2.00184e-07
2.57201e-06
-1.97569e-07
2.67155e-06
-1.9467e-07
2.76958e-06
-1.91521e-07
2.866e-06
-1.88144e-07
2.96069e-06
-1.84544e-07
3.05354e-06
-1.80727e-07
3.14443e-06
-1.7672e-07
3.2333e-06
-1.72568e-07
3.32011e-06
-1.68292e-07
3.40477e-06
-1.63882e-07
3.48721e-06
-1.59351e-07
3.5674e-06
-1.54755e-07
3.64532e-06
-1.50124e-07
3.72096e-06
-1.45441e-07
3.79427e-06
-1.40709e-07
3.86523e-06
-1.35974e-07
3.93388e-06
-1.31271e-07
4.00024e-06
-1.26589e-07
4.06428e-06
-1.21918e-07
4.12602e-06
-1.17287e-07
4.18549e-06
-1.12729e-07
4.24275e-06
-1.08243e-07
4.29782e-06
-1.03817e-07
4.3507e-06
-9.94625e-08
4.40144e-06
-9.51998e-08
4.45011e-06
-9.10364e-08
4.49676e-06
-8.69654e-08
4.54142e-06
-8.29866e-08
4.58411e-06
-7.91073e-08
4.62489e-06
-7.53346e-08
4.66385e-06
-7.167e-08
4.70101e-06
-6.81116e-08
4.73643e-06
-6.46577e-08
4.77014e-06
-6.13065e-08
4.8022e-06
-5.80608e-08
4.83268e-06
-5.49245e-08
4.86163e-06
-5.18962e-08
4.88908e-06
-4.89685e-08
4.91507e-06
-4.61364e-08
4.93968e-06
-4.34038e-08
4.96295e-06
-4.07745e-08
4.98493e-06
-3.82449e-08
5.00565e-06
-3.58055e-08
5.02516e-06
-3.34521e-08
5.04351e-06
-3.11889e-08
5.06075e-06
-2.90184e-08
5.07691e-06
-2.69349e-08
5.09204e-06
-2.49292e-08
5.10617e-06
-2.29982e-08
5.11935e-06
-2.11455e-08
5.13161e-06
-1.93726e-08
5.143e-06
-1.76739e-08
5.15354e-06
-1.60424e-08
5.16327e-06
-1.44757e-08
5.17222e-06
-1.29757e-08
5.18043e-06
-1.15417e-08
5.18793e-06
-1.0168e-08
5.19475e-06
-8.84979e-09
5.20091e-06
-7.58769e-09
5.20645e-06
-6.38589e-09
5.21139e-06
-5.24526e-09
5.21572e-06
-4.15284e-09
5.21954e-06
-3.08125e-09
5.22283e-06
-2.05736e-09
5.22562e-06
-1.08187e-09
5.22793e-06
-1.61106e-10
5.2298e-06
7.08899e-10
5.23122e-06
1.55748e-09
5.23222e-06
2.36919e-09
5.23282e-06
3.14456e-09
5.23305e-06
3.87983e-09
5.23291e-06
4.57859e-09
5.23243e-06
5.2491e-09
5.23161e-06
5.89513e-09
5.23048e-06
6.51552e-09
5.22905e-06
7.10718e-09
5.22734e-06
7.66998e-09
5.22536e-06
8.20759e-09
5.22311e-06
8.7249e-09
5.22061e-06
9.22412e-09
5.21787e-06
9.70395e-09
5.2149e-06
1.01622e-08
5.21172e-06
1.05989e-08
5.20833e-06
1.10165e-08
5.20473e-06
1.14189e-08
5.20095e-06
1.1808e-08
5.19699e-06
1.21841e-08
5.19285e-06
1.25461e-08
5.18854e-06
1.28935e-08
5.18407e-06
1.32272e-08
5.17946e-06
1.35484e-08
5.17469e-06
1.3859e-08
5.16978e-06
1.4161e-08
5.16473e-06
1.44552e-08
5.15955e-06
1.47416e-08
5.15424e-06
1.50195e-08
5.14881e-06
1.52879e-08
5.14327e-06
1.55468e-08
5.13761e-06
1.5798e-08
5.13184e-06
1.60436e-08
5.12596e-06
1.62852e-08
5.11997e-06
1.65231e-08
5.11389e-06
1.6756e-08
5.10771e-06
1.69832e-08
5.10143e-06
1.7205e-08
5.09506e-06
1.74227e-08
5.0886e-06
1.76374e-08
5.08205e-06
1.785e-08
5.07541e-06
1.80607e-08
5.06868e-06
1.82695e-08
5.06187e-06
1.8476e-08
5.05498e-06
1.86802e-08
5.048e-06
1.88827e-08
5.04094e-06
1.90843e-08
5.0338e-06
1.92855e-08
5.02658e-06
1.94864e-08
5.01928e-06
1.96866e-08
5.0119e-06
1.98859e-08
5.00444e-06
2.00843e-08
4.9969e-06
2.02822e-08
4.98929e-06
2.04799e-08
4.98159e-06
2.0679e-08
4.97382e-06
2.08809e-08
4.96597e-06
2.10849e-08
4.95803e-06
2.12902e-08
4.95002e-06
2.14975e-08
4.94192e-06
2.1707e-08
4.93374e-06
2.1919e-08
4.92547e-06
2.21352e-08
4.91711e-06
2.23579e-08
4.90865e-06
2.25873e-08
4.9001e-06
2.28255e-08
4.89145e-06
2.30747e-08
4.88268e-06
2.33366e-08
4.8738e-06
2.36169e-08
4.86478e-06
2.3919e-08
4.85561e-06
2.42483e-08
4.84627e-06
2.4614e-08
4.83674e-06
2.50226e-08
4.82698e-06
2.54874e-08
4.81695e-06
2.60278e-08
4.80659e-06
2.6662e-08
4.79585e-06
2.74196e-08
4.7846e-06
2.83456e-08
4.77275e-06
2.94867e-08
4.7601e-06
3.09294e-08
4.74643e-06
3.27839e-08
4.73142e-06
3.52074e-08
4.71456e-06
3.85165e-08
4.69521e-06
4.28892e-08
4.67219e-06
4.98955e-08
4.64349e-06
5.80081e-08
4.6046e-06
8.14877e-08
4.54817e-06
9.50794e-08
4.47276e-06
2.1492e-07
2.19511e-07
4.37598e-06
8.33726e-08
-2.54518e-07
1.80273e-07
-2.89281e-07
2.78939e-07
-2.94061e-07
3.78602e-07
-2.96922e-07
4.79214e-07
-2.99627e-07
5.80762e-07
-3.02259e-07
6.83223e-07
-3.04799e-07
7.86563e-07
-3.07216e-07
8.90737e-07
-3.09477e-07
9.95685e-07
-3.11548e-07
1.10133e-06
-3.1339e-07
1.20758e-06
-3.14966e-07
1.31434e-06
-3.16239e-07
1.42147e-06
-3.17172e-07
1.52887e-06
-3.17733e-07
1.63637e-06
-3.17898e-07
1.74386e-06
-3.1764e-07
1.85116e-06
-3.16936e-07
1.9581e-06
-3.1577e-07
2.06452e-06
-3.14134e-07
2.17027e-06
-3.12028e-07
2.27518e-06
-3.09457e-07
2.3791e-06
-3.06426e-07
2.48186e-06
-3.02937e-07
2.5833e-06
-2.99013e-07
2.68332e-06
-2.94691e-07
2.78178e-06
-2.89985e-07
2.87853e-06
-2.8489e-07
2.97344e-06
-2.79451e-07
3.06645e-06
-2.73742e-07
3.15751e-06
-2.67778e-07
3.24649e-06
-2.61544e-07
3.33327e-06
-2.55079e-07
3.41785e-06
-2.48459e-07
3.50022e-06
-2.41717e-07
3.58031e-06
-2.34849e-07
3.65805e-06
-2.27868e-07
3.73344e-06
-2.20828e-07
3.80651e-06
-2.13779e-07
3.87726e-06
-2.06727e-07
3.94566e-06
-1.99665e-07
4.01168e-06
-1.92616e-07
4.0754e-06
-1.85635e-07
4.13686e-06
-1.78746e-07
4.19606e-06
-1.7193e-07
4.253e-06
-1.65181e-07
4.30772e-06
-1.58539e-07
4.3603e-06
-1.52043e-07
4.41079e-06
-1.45684e-07
4.45919e-06
-1.39435e-07
4.50553e-06
-1.3331e-07
4.54989e-06
-1.27346e-07
4.59234e-06
-1.21554e-07
4.63291e-06
-1.15908e-07
4.67164e-06
-1.10397e-07
4.70856e-06
-1.05039e-07
4.74376e-06
-9.98546e-08
4.77729e-06
-9.48386e-08
4.8092e-06
-8.99703e-08
4.83952e-06
-8.52459e-08
4.86831e-06
-8.06783e-08
4.89561e-06
-7.62736e-08
4.9215e-06
-7.20225e-08
4.94601e-06
-6.79137e-08
4.96918e-06
-6.39465e-08
4.99106e-06
-6.01246e-08
5.0117e-06
-5.64463e-08
5.03115e-06
-5.29046e-08
5.04946e-06
-4.94945e-08
5.06665e-06
-4.62139e-08
5.08278e-06
-4.30609e-08
5.09788e-06
-4.00305e-08
5.112e-06
-3.71183e-08
5.12518e-06
-3.43222e-08
5.13744e-06
-3.16395e-08
5.14884e-06
-2.9066e-08
5.15939e-06
-2.65969e-08
5.16914e-06
-2.42294e-08
5.17813e-06
-2.19617e-08
5.18638e-06
-1.97899e-08
5.19392e-06
-1.77083e-08
5.20078e-06
-1.5713e-08
5.207e-06
-1.38035e-08
5.21259e-06
-1.198e-08
5.21759e-06
-1.02388e-08
5.222e-06
-8.57078e-09
5.22589e-06
-6.96573e-09
5.22926e-06
-5.42838e-09
5.23214e-06
-3.96154e-09
5.23454e-06
-2.56489e-09
5.23648e-06
-1.23148e-09
5.238e-06
4.43985e-11
5.23909e-06
1.27351e-09
5.2398e-06
2.43976e-09
5.24013e-06
3.5475e-09
5.2401e-06
4.60642e-09
5.23973e-06
5.62222e-09
5.23903e-06
6.59682e-09
5.23801e-06
7.52806e-09
5.23671e-06
8.41441e-09
5.23512e-06
9.25882e-09
5.23326e-06
1.00674e-08
5.23114e-06
1.08452e-08
5.22877e-06
1.15932e-08
5.22616e-06
1.23093e-08
5.22333e-06
1.29919e-08
5.22029e-06
1.36421e-08
5.21704e-06
1.42641e-08
5.2136e-06
1.48627e-08
5.20997e-06
1.54403e-08
5.20615e-06
1.5997e-08
5.20217e-06
1.65316e-08
5.19802e-06
1.70434e-08
5.19371e-06
1.75333e-08
5.18926e-06
1.80037e-08
5.18466e-06
1.84578e-08
5.17992e-06
1.8899e-08
5.17505e-06
1.93282e-08
5.17004e-06
1.97448e-08
5.16492e-06
2.01468e-08
5.15967e-06
2.05325e-08
5.15432e-06
2.09036e-08
5.14885e-06
2.12638e-08
5.14328e-06
2.16169e-08
5.1376e-06
2.19642e-08
5.13182e-06
2.23042e-08
5.12594e-06
2.26347e-08
5.11997e-06
2.29547e-08
5.1139e-06
2.32664e-08
5.10776e-06
2.3572e-08
5.10152e-06
2.38739e-08
5.0952e-06
2.41726e-08
5.08879e-06
2.44673e-08
5.0823e-06
2.47575e-08
5.07573e-06
2.50433e-08
5.06909e-06
2.5325e-08
5.06237e-06
2.56042e-08
5.05557e-06
2.58824e-08
5.04869e-06
2.61603e-08
5.04174e-06
2.64369e-08
5.03472e-06
2.67116e-08
5.02762e-06
2.69841e-08
5.02045e-06
2.72548e-08
5.01321e-06
2.75241e-08
5.0059e-06
2.77932e-08
4.99851e-06
2.80645e-08
4.99105e-06
2.83397e-08
4.98352e-06
2.86176e-08
4.97591e-06
2.88968e-08
4.96823e-06
2.9178e-08
4.96048e-06
2.94624e-08
4.95264e-06
2.97503e-08
4.94474e-06
3.00447e-08
4.93674e-06
3.03491e-08
4.92867e-06
3.06641e-08
4.9205e-06
3.09915e-08
4.91224e-06
3.13354e-08
4.90388e-06
3.16986e-08
4.89541e-06
3.20892e-08
4.88681e-06
3.25144e-08
4.87808e-06
3.29812e-08
4.86919e-06
3.35042e-08
4.86012e-06
3.40949e-08
4.85083e-06
3.47715e-08
4.84129e-06
3.55649e-08
4.83145e-06
3.65054e-08
4.82123e-06
3.7637e-08
4.81055e-06
3.90302e-08
4.79928e-06
4.07575e-08
4.78726e-06
4.29484e-08
4.77427e-06
4.57781e-08
4.75999e-06
4.94783e-08
4.74398e-06
5.45284e-08
4.72562e-06
6.12531e-08
4.7037e-06
7.1816e-08
4.67668e-06
8.50297e-08
4.64266e-06
1.15499e-07
4.59574e-06
1.42006e-07
4.5547e-06
2.5596e-07
3.21381e-07
4.45283e-06
8.00221e-08
-3.3454e-07
1.76859e-07
-3.86117e-07
2.75757e-07
-3.92959e-07
3.75731e-07
-3.96896e-07
4.76736e-07
-4.00631e-07
5.78771e-07
-4.04294e-07
6.81826e-07
-4.07854e-07
7.85874e-07
-4.11263e-07
8.90869e-07
-4.14473e-07
9.9675e-07
-4.17429e-07
1.10344e-06
-4.20078e-07
1.21083e-06
-4.22361e-07
1.31882e-06
-4.24224e-07
1.42726e-06
-4.25614e-07
1.53601e-06
-4.26486e-07
1.64491e-06
-4.268e-07
1.75379e-06
-4.26514e-07
1.86246e-06
-4.25605e-07
1.97075e-06
-4.24067e-07
2.0785e-06
-4.21885e-07
2.18551e-06
-4.19037e-07
2.29159e-06
-4.15533e-07
2.39657e-06
-4.1141e-07
2.50032e-06
-4.06687e-07
2.60267e-06
-4.01356e-07
2.70343e-06
-3.95455e-07
2.80249e-06
-3.89043e-07
2.89976e-06
-3.82158e-07
2.99514e-06
-3.74831e-07
3.08848e-06
-3.67088e-07
3.17968e-06
-3.58972e-07
3.26868e-06
-3.50551e-07
3.35549e-06
-3.41887e-07
3.44003e-06
-3.32994e-07
3.52219e-06
-3.23883e-07
3.60196e-06
-3.14622e-07
3.67938e-06
-3.05286e-07
3.75444e-06
-2.95891e-07
3.8271e-06
-2.86431e-07
3.89731e-06
-2.76944e-07
3.96515e-06
-2.675e-07
4.03066e-06
-2.58131e-07
4.09386e-06
-2.48827e-07
4.1547e-06
-2.39594e-07
4.21324e-06
-2.3047e-07
4.26956e-06
-2.21497e-07
4.32371e-06
-2.12687e-07
4.37569e-06
-2.04025e-07
4.42552e-06
-1.95514e-07
4.47327e-06
-1.87184e-07
4.51902e-06
-1.79063e-07
4.56282e-06
-1.71149e-07
4.60469e-06
-1.63422e-07
4.64466e-06
-1.55879e-07
4.68281e-06
-1.48547e-07
4.71922e-06
-1.41443e-07
4.75392e-06
-1.34556e-07
4.78694e-06
-1.27865e-07
4.81834e-06
-1.21369e-07
4.84818e-06
-1.15084e-07
4.87652e-06
-1.09018e-07
4.90341e-06
-1.0316e-07
4.92888e-06
-9.74916e-08
4.95298e-06
-9.20122e-08
4.97576e-06
-8.673e-08
4.99728e-06
-8.16453e-08
5.01758e-06
-7.67477e-08
5.0367e-06
-7.20262e-08
5.05469e-06
-6.74781e-08
5.07158e-06
-6.31048e-08
5.08742e-06
-5.89027e-08
5.10225e-06
-5.48643e-08
5.11612e-06
-5.09824e-08
5.12905e-06
-4.7253e-08
5.14108e-06
-4.3673e-08
5.15225e-06
-4.02384e-08
5.1626e-06
-3.69449e-08
5.17216e-06
-3.37882e-08
5.18096e-06
-3.07628e-08
5.18903e-06
-2.78623e-08
5.19641e-06
-2.50813e-08
5.20311e-06
-2.24171e-08
5.20918e-06
-1.9869e-08
5.21463e-06
-1.74344e-08
5.2195e-06
-1.51056e-08
5.2238e-06
-1.28741e-08
5.22757e-06
-1.07349e-08
5.23083e-06
-8.68845e-09
5.2336e-06
-6.73498e-09
5.23591e-06
-4.86954e-09
5.23776e-06
-3.08694e-09
5.23919e-06
-1.38106e-09
5.24021e-06
2.5648e-10
5.24084e-06
1.80767e-09
5.2411e-06
3.28651e-09
5.241e-06
4.70162e-09
5.24057e-06
6.05678e-09
5.23981e-06
7.35428e-09
5.23875e-06
8.59206e-09
5.23739e-06
9.76985e-09
5.23576e-06
1.08935e-08
5.23385e-06
1.19706e-08
5.23169e-06
1.30061e-08
5.22929e-06
1.39998e-08
5.22665e-06
1.49493e-08
5.22379e-06
1.58534e-08
5.22071e-06
1.67149e-08
5.21744e-06
1.75392e-08
5.21397e-06
1.83323e-08
5.21031e-06
1.9097e-08
5.20648e-06
1.98327e-08
5.20247e-06
2.0538e-08
5.1983e-06
2.12125e-08
5.19398e-06
2.18569e-08
5.18951e-06
2.24747e-08
5.18489e-06
2.30715e-08
5.18014e-06
2.3651e-08
5.17525e-06
2.42142e-08
5.17024e-06
2.47593e-08
5.1651e-06
2.52835e-08
5.15985e-06
2.57849e-08
5.15449e-06
2.62673e-08
5.14901e-06