/*--------------------------------*- C++ -*----------------------------------*\
| =========                 |                                                 |
| \\      /  F ield         | OpenFOAM: The Open Source CFD Toolbox           |
|  \\    /   O peration     | Version:  2.1.x                                 |
|   \\  /    A nd           | Web:      www.OpenFOAM.org                      |
|    \\/     M anipulation  |                                                 |
\*---------------------------------------------------------------------------*/
FoamFile
{
    version     2.0;
    format      ascii;
    class       surfaceScalarField;
    location    "0.001";
    object      phi_0;
}
// * * * * * * * * * * * * * * * * * * * * * * * * * * * * * * * * * * * * * //

dimensions      [0 3 -1 0 0 0 0];

internalField   nonuniform List<scalar> 
24170
(
1.89886e-06
1.27021e-06
1.17782e-06
7.21041e-07
8.80345e-07
2.97478e-07
7.50389e-07
1.29956e-07
7.33685e-07
1.67039e-08
7.71214e-07
-3.75282e-08
8.38224e-07
-6.70102e-08
8.55041e-07
-1.68169e-08
8.82595e-07
-2.7554e-08
9.57426e-07
-7.48318e-08
9.36109e-07
2.13176e-08
1.04954e-06
-1.13427e-07
1.18411e-06
-1.34577e-07
1.13867e-06
4.544e-08
1.33454e-06
-1.95869e-07
1.77098e-06
-4.36439e-07
1.70915e-06
6.183e-08
-3.18839e-07
2.02799e-06
3.40072e-06
1.44979e-06
2.95619e-06
1.16558e-06
2.61682e-06
6.36844e-07
2.38886e-06
3.57919e-07
2.31359e-06
9.19698e-08
2.34207e-06
-6.6011e-08
2.45638e-06
-1.81318e-07
2.45288e-06
-1.3312e-08
2.57619e-06
-1.50872e-07
2.68235e-06
-1.8099e-07
2.59471e-06
1.08958e-07
2.93109e-06
-4.49809e-07
3.10912e-06
-3.12606e-07
2.86347e-06
2.91096e-07
3.33725e-06
-6.69651e-07
4.08484e-06
-1.18403e-06
4.15069e-06
-4.02584e-09
-5.46737e-07
4.37859e-06
4.11696e-06
1.14182e-06
4.07177e-06
1.21077e-06
3.92209e-06
7.86525e-07
3.79014e-06
4.89864e-07
3.70295e-06
1.7916e-07
3.73113e-06
-9.41894e-08
3.7716e-06
-2.21792e-07
3.76649e-06
-8.20088e-09
3.97797e-06
-3.62346e-07
3.8922e-06
-9.52278e-08
3.9312e-06
6.9964e-08
4.33566e-06
-8.54269e-07
4.21272e-06
-1.89664e-07
4.19941e-06
3.044e-07
4.82937e-06
-1.29961e-06
4.78476e-06
-1.13941e-06
4.83106e-06
-5.03275e-08
-1.59721e-06
5.88153e-06
4.50123e-06
9.52453e-07
4.58713e-06
1.12486e-06
4.6007e-06
7.7296e-07
4.58444e-06
5.06127e-07
4.57097e-06
1.92626e-07
4.54394e-06
-6.71553e-08
4.49035e-06
-1.68206e-07
4.64799e-06
-1.65839e-07
4.47663e-06
-1.90988e-07
4.64148e-06
-2.60074e-07
4.90785e-06
-1.96409e-07
4.52384e-06
-4.70259e-07
4.70292e-06
-3.68743e-07
5.38324e-06
-3.75924e-07
5.05871e-06
-9.75085e-07
4.69008e-06
-7.70781e-07
5.46666e-06
-8.26905e-07
-1.94392e-06
5.81337e-06
4.79715e-06
7.2834e-07
4.98672e-06
9.35292e-07
5.06616e-06
6.93522e-07
5.09661e-06
4.75674e-07
5.08698e-06
2.02264e-07
5.02496e-06
-5.13717e-09
5.0348e-06
-1.78045e-07
5.02393e-06
-1.54977e-07
5.03319e-06
-2.00248e-07
5.19802e-06
-4.24905e-07
5.1364e-06
-1.34783e-07
5.20547e-06
-5.39329e-07
5.4965e-06
-6.59773e-07
5.53489e-06
-4.1431e-07
5.36391e-06
-8.04115e-07
5.77848e-06
-1.18534e-06
6.36062e-06
-1.40904e-06
-1.58837e-06
6.00506e-06
5.35684e-06
5.36013e-07
5.49934e-06
7.92794e-07
5.55454e-06
6.38325e-07
5.58941e-06
4.40798e-07
5.57632e-06
2.15357e-07
5.56317e-06
8.01167e-09
5.51902e-06
-1.33893e-07
5.5343e-06
-1.7026e-07
5.6322e-06
-2.9814e-07
5.55255e-06
-3.45254e-07
5.72897e-06
-3.11207e-07
5.853e-06
-6.63362e-07
5.83553e-06
-6.42297e-07
5.92797e-06
-5.06752e-07
6.11711e-06
-9.93257e-07
6.42118e-06
-1.48942e-06
6.30327e-06
-1.29113e-06
-1.18644e-06
5.90135e-06
5.72079e-06
3.87932e-07
5.93477e-06
5.78812e-07
6.03039e-06
5.42706e-07
6.05898e-06
4.12215e-07
6.05302e-06
2.21311e-07
6.03343e-06
2.76023e-08
6.02218e-06
-1.22639e-07
6.09507e-06
-2.4315e-07
6.07381e-06
-2.76886e-07
6.18753e-06
-4.58972e-07
6.32644e-06
-4.50119e-07
6.25833e-06
-5.9525e-07
6.37196e-06
-7.55922e-07
6.68286e-06
-8.17659e-07
6.71812e-06
-1.02852e-06
6.50362e-06
-1.27492e-06
6.62896e-06
-1.41647e-06
-1.79724e-06
7.23976e-06
4.5345e-06
2.7177e-07
4.63686e-06
4.76461e-07
4.67772e-06
5.01844e-07
4.68214e-06
4.07793e-07
4.67407e-06
2.29385e-07
4.67231e-06
2.93555e-08
4.69056e-06
-1.40881e-07
4.70546e-06
-2.58055e-07
4.779e-06
-3.50423e-07
4.79833e-06
-4.783e-07
4.85123e-06
-5.03025e-07
4.93961e-06
-6.8363e-07
5.00728e-06
-8.23594e-07
5.05139e-06
-8.61768e-07
5.05603e-06
-1.03316e-06
5.18122e-06
-1.40011e-06
5.39946e-06
-1.63471e-06
-1.50308e-06
5.1053e-06
5.27972e-06
8.98658e-08
5.35982e-06
3.96357e-07
5.40032e-06
4.61344e-07
5.42891e-06
3.79204e-07
5.45185e-06
2.06451e-07
5.47308e-06
8.12101e-09
5.47916e-06
-1.46957e-07
5.51847e-06
-2.97369e-07
5.54416e-06
-3.7611e-07
5.57765e-06
-5.11792e-07
5.68294e-06
-6.08317e-07
5.70749e-06
-7.08181e-07
5.72213e-06
-8.3823e-07
5.85484e-06
-9.94479e-07
5.98756e-06
-1.16588e-06
5.94623e-06
-1.35878e-06
5.7221e-06
-1.41057e-06
-1.62754e-06
5.84656e-06
6.11817e-06
1.83455e-07
6.12939e-06
3.8514e-07
6.19091e-06
3.99823e-07
6.25677e-06
3.1334e-07
6.30276e-06
1.60469e-07
6.32728e-06
-1.64063e-08
6.35746e-06
-1.77135e-07
6.38307e-06
-3.22975e-07
6.43779e-06
-4.30834e-07
6.4958e-06
-5.69804e-07
6.5346e-06
-6.47109e-07
6.60508e-06
-7.78664e-07
6.69887e-06
-9.32018e-07
6.74366e-06
-1.03927e-06
6.72958e-06
-1.1518e-06
6.70763e-06
-1.33683e-06
6.87676e-06
-1.5797e-06
-1.87853e-06
7.12775e-06
7.09439e-06
1.97011e-07
7.17161e-06
3.07922e-07
7.24217e-06
3.29261e-07
7.302e-06
2.53517e-07
7.3393e-06
1.23171e-07
7.3631e-06
-4.0209e-08
7.38526e-06
-1.99302e-07
7.42102e-06
-3.58727e-07
7.47352e-06
-4.83338e-07
7.51282e-06
-6.09105e-07
7.58751e-06
-7.21796e-07
7.65441e-06
-8.45563e-07
7.6702e-06
-9.47808e-07
7.71964e-06
-1.08871e-06
7.80046e-06
-1.23262e-06
7.85669e-06
-1.39305e-06
7.76218e-06
-1.48519e-06
-1.42915e-06
7.3128e-06
8.25344e-06
1.69249e-07
8.27798e-06
2.83384e-07
8.29513e-06
3.1211e-07
8.30389e-06
2.4476e-07
8.33126e-06
9.5798e-08
8.38473e-06
-9.36757e-08
8.45893e-06
-2.73503e-07
8.53593e-06
-4.35727e-07
8.61339e-06
-5.60796e-07
8.6883e-06
-6.84021e-07
8.75048e-06
-7.83972e-07
8.79906e-06
-8.94143e-07
8.85802e-06
-1.00677e-06
8.89954e-06
-1.13023e-06
8.89072e-06
-1.2238e-06
8.82948e-06
-1.33181e-06
8.81745e-06
-1.47317e-06
-1.7239e-06
9.11221e-06
9.48445e-06
1.7089e-07
9.56421e-06
2.03626e-07
9.6276e-06
2.48717e-07
9.68565e-06
1.86715e-07
9.74777e-06
3.36714e-08
9.81657e-06
-1.6247e-07
9.88506e-06
-3.41997e-07
9.94883e-06
-4.995e-07
1.00116e-05
-6.23579e-07
1.00637e-05
-7.36127e-07
1.01119e-05
-8.32149e-07
1.01556e-05
-9.3785e-07
1.01765e-05
-1.02768e-06
1.01774e-05
-1.13109e-06
1.01805e-05
-1.22689e-06
1.01839e-05
-1.33526e-06
1.01318e-05
-1.42104e-06
-1.44915e-06
9.85703e-06
1.10141e-05
1.11557e-07
1.1027e-05
1.90744e-07
1.10873e-05
1.88427e-07
1.11479e-05
1.26104e-07
1.12145e-05
-3.29722e-08
1.12957e-05
-2.43684e-07
1.13858e-05
-4.3209e-07
1.14699e-05
-5.83543e-07
1.15426e-05
-6.96299e-07
1.16005e-05
-7.94048e-07
1.16439e-05
-8.75517e-07
1.16674e-05
-9.61407e-07
1.16764e-05
-1.03666e-06
1.16682e-05
-1.12291e-06
1.16372e-05
-1.1959e-06
1.15742e-05
-1.27225e-06
1.14978e-05
-1.34459e-06
-1.42401e-06
1.14726e-05
1.27779e-05
1.71031e-07
1.28914e-05
7.73071e-08
1.30644e-05
1.5431e-08
1.32286e-05
-3.80972e-08
1.33441e-05
-1.48447e-07
1.34053e-05
-3.04968e-07
1.34313e-05
-4.58063e-07
1.34412e-05
-5.93384e-07
1.34469e-05
-7.02085e-07
1.34485e-05
-7.95579e-07
1.34449e-05
-8.71987e-07
1.34316e-05
-9.48053e-07
1.34052e-05
-1.01031e-06
1.33622e-05
-1.07988e-06
1.33045e-05
-1.13818e-06
1.32315e-05
-1.19926e-06
1.31369e-05
-1.24999e-06
-1.28746e-06
1.30003e-05
1.49913e-05
1.1441e-07
1.51181e-05
-4.94595e-08
1.52668e-05
-1.33273e-07
1.5399e-05
-1.7036e-07
1.54849e-05
-2.34277e-07
1.55133e-05
-3.33443e-07
1.55135e-05
-4.58228e-07
1.55057e-05
-5.85554e-07
1.54958e-05
-6.92263e-07
1.54807e-05
-7.80417e-07
1.54573e-05
-8.48578e-07
1.54194e-05
-9.10194e-07
1.53684e-05
-9.59297e-07
1.53014e-05
-1.01288e-06
1.52176e-05
-1.05442e-06
1.51152e-05
-1.09685e-06
1.49957e-05
-1.13046e-06
-1.15644e-06
1.48647e-05
1.7417e-05
1.44048e-07
1.74491e-05
-8.14817e-08
1.74698e-05
-1.54043e-07
1.74771e-05
-1.77663e-07
1.75056e-05
-2.6279e-07
1.75751e-05
-4.02867e-07
1.76561e-05
-5.39302e-07
1.77203e-05
-6.49669e-07
1.77562e-05
-7.28248e-07
1.77617e-05
-7.85905e-07
1.77394e-05
-8.2623e-07
1.76909e-05
-8.61699e-07
1.76215e-05
-8.8995e-07
1.75311e-05
-9.22409e-07
1.74226e-05
-9.45952e-07
1.72971e-05
-9.713e-07
1.71563e-05
-9.89696e-07
-1.00156e-06
1.70014e-05
1.75587e-05
-1.12811e-07
1.7575e-05
-9.78062e-08
1.75472e-05
-1.26251e-07
1.76024e-05
-2.32885e-07
1.7711e-05
-3.71368e-07
1.78119e-05
-5.03741e-07
1.78778e-05
-6.05189e-07
1.79018e-05
-6.73698e-07
1.78892e-05
-7.15611e-07
1.7847e-05
-7.43729e-07
1.77825e-05
-7.61735e-07
1.77e-05
-7.79246e-07
1.7603e-05
-7.9294e-07
1.74912e-05
-8.10621e-07
1.73673e-05
-8.21993e-07
1.72316e-05
-8.35591e-07
1.70858e-05
-8.43911e-07
-8.47605e-07
1.69318e-05
1.58065e-05
-9.17153e-08
1.57238e-05
-1.50376e-08
1.56773e-05
-7.98168e-08
1.56655e-05
-2.2104e-07
1.56978e-05
-4.03714e-07
1.57537e-05
-5.59639e-07
1.58013e-05
-6.52713e-07
1.58204e-05
-6.9282e-07
1.58078e-05
-7.03065e-07
1.57675e-05
-7.03378e-07
1.57052e-05
-6.99428e-07
1.56249e-05
-6.98965e-07
1.55308e-05
-6.98878e-07
1.54245e-05
-7.04324e-07
1.53089e-05
-7.06405e-07
1.5185e-05
-7.11665e-07
1.50545e-05
-7.13429e-07
-7.12427e-07
1.49194e-05
1.36929e-05
-2.91353e-07
1.39829e-05
-3.05066e-07
1.42035e-05
-3.00389e-07
1.4328e-05
-3.45543e-07
1.43596e-05
-4.3535e-07
1.43303e-05
-5.30349e-07
1.42723e-05
-5.94642e-07
1.42029e-05
-6.23402e-07
1.41274e-05
-6.27621e-07
1.40461e-05
-6.22036e-07
1.39589e-05
-6.12251e-07
1.38653e-05
-6.05351e-07
1.37658e-05
-5.99378e-07
1.36601e-05
-5.98615e-07
1.35495e-05
-5.95879e-07
1.34344e-05
-5.96551e-07
1.33159e-05
-5.94892e-07
-5.91777e-07
1.31952e-05
1.23323e-05
-3.35174e-07
1.25288e-05
-5.01554e-07
1.27354e-05
-5.07034e-07
1.28904e-05
-5.00568e-07
1.29549e-05
-4.99789e-07
1.29286e-05
-5.04106e-07
1.28471e-05
-5.13156e-07
1.27447e-05
-5.20988e-07
1.26389e-05
-5.21772e-07
1.25345e-05
-5.17694e-07
1.24323e-05
-5.10027e-07
1.23308e-05
-5.03834e-07
1.22291e-05
-4.97635e-07
1.21257e-05
-4.95244e-07
1.20209e-05
-4.91099e-07
1.19142e-05
-4.89885e-07
1.18063e-05
-4.8692e-07
-4.83292e-07
1.16978e-05
1.11551e-05
-4.85123e-07
1.12434e-05
-5.89906e-07
1.13125e-05
-5.76105e-07
1.13417e-05
-5.29784e-07
1.13394e-05
-4.97537e-07
1.13208e-05
-4.855e-07
1.12901e-05
-4.82391e-07
1.12454e-05
-4.76313e-07
1.11874e-05
-4.63778e-07
1.11177e-05
-4.48018e-07
1.10391e-05
-4.3138e-07
1.09538e-05
-4.18541e-07
1.08643e-05
-4.08123e-07
1.07715e-05
-4.02466e-07
1.06768e-05
-3.96386e-07
1.05803e-05
-3.93446e-07
1.04831e-05
-3.89637e-07
-3.85993e-07
1.03858e-05
1.02744e-05
-4.34849e-07
1.02178e-05
-5.33293e-07
1.01957e-05
-5.54011e-07
1.0194e-05
-5.28107e-07
1.01882e-05
-4.9178e-07
1.01646e-05
-4.61869e-07
1.01222e-05
-4.40029e-07
1.00654e-05
-4.19442e-07
9.99793e-06
-3.96333e-07
9.92224e-06
-3.7233e-07
9.84116e-06
-3.50302e-07
9.75676e-06
-3.34137e-07
9.67084e-06
-3.22202e-07
9.5837e-06
-3.15325e-07
9.49603e-06
-3.08716e-07
9.40773e-06
-3.05153e-07
9.31936e-06
-3.01265e-07
-2.98034e-07
9.2314e-06
8.9241e-06
-3.78961e-07
8.99457e-06
-6.03766e-07
9.10126e-06
-6.60699e-07
9.17648e-06
-6.03327e-07
9.19095e-06
-5.0625e-07
9.15163e-06
-4.2255e-07
9.08491e-06
-3.73304e-07
9.01008e-06
-3.44611e-07
8.93292e-06
-3.19178e-07
8.85346e-06
-2.92865e-07
8.7729e-06
-2.69745e-07
8.69197e-06
-2.53207e-07
8.61166e-06
-2.41889e-07
8.53141e-06
-2.3508e-07
8.4513e-06
-2.28601e-07
8.37117e-06
-2.25023e-07
8.29122e-06
-2.21319e-07
-2.18476e-07
8.21166e-06
8.08731e-06
-4.57765e-07
8.19714e-06
-7.13593e-07
8.29142e-06
-7.54974e-07
8.33653e-06
-6.48446e-07
8.31586e-06
-4.85573e-07
8.24092e-06
-3.47612e-07
8.14825e-06
-2.80631e-07
8.06001e-06
-2.56377e-07
7.9782e-06
-2.37363e-07
7.89855e-06
-2.13221e-07
7.82091e-06
-1.92098e-07
7.74481e-06
-1.77111e-07
7.671e-06
-1.68078e-07
7.59802e-06
-1.62102e-07
7.5255e-06
-1.56074e-07
7.45327e-06
-1.52793e-07
7.38124e-06
-1.49288e-07
-1.46285e-07
7.30905e-06
7.14433e-06
-5.89565e-07
7.33827e-06
-9.07534e-07
7.49788e-06
-9.14579e-07
7.58813e-06
-7.387e-07
7.57226e-06
-4.69701e-07
7.47106e-06
-2.46409e-07
7.34731e-06
-1.56882e-07
7.23716e-06
-1.46228e-07
7.14258e-06
-1.42782e-07
7.05664e-06
-1.27289e-07
6.97798e-06
-1.13433e-07
6.90437e-06
-1.03499e-07
6.83594e-06
-9.96527e-08
6.76913e-06
-9.52897e-08
6.70392e-06
-9.08619e-08
6.63939e-06
-8.82618e-08
6.57465e-06
-8.45475e-08
-8.06529e-08
6.50901e-06
6.51279e-06
-6.80416e-07
6.71021e-06
-1.10496e-06
6.81411e-06
-1.01848e-06
6.83753e-06
-7.62119e-07
6.76893e-06
-4.01104e-07
6.64264e-06
-1.20117e-07
6.52014e-06
-3.4381e-08
6.42623e-06
-5.23165e-08
6.34908e-06
-6.56345e-08
6.27765e-06
-5.58602e-08
6.21085e-06
-4.6633e-08
6.14667e-06
-3.93183e-08
6.08772e-06
-4.07049e-08
6.0283e-06
-3.58654e-08
5.97146e-06
-3.40219e-08
5.91506e-06
-3.18601e-08
5.85798e-06
-2.74691e-08
-2.14523e-08
5.79878e-06
5.95315e-06
-8.83571e-07
6.09687e-06
-1.24867e-06
6.07727e-06
-9.98883e-07
6.00489e-06
-6.89732e-07
5.91145e-06
-3.07669e-07
5.81092e-06
-1.95809e-08
5.71788e-06
5.86495e-08
5.64079e-06
2.47807e-08
5.57454e-06
6.15669e-10
5.51372e-06
4.95643e-09
5.45841e-06
8.6784e-09
5.40637e-06
1.27245e-08
5.35924e-06
6.42642e-09
5.31179e-06
1.15832e-08
5.26799e-06
9.77546e-09
5.22398e-06
1.21516e-08
5.17922e-06
1.72844e-08
2.51952e-08
5.13258e-06
5.17008e-06
-1.03695e-06
4.92316e-06
-1.00175e-06
4.55982e-06
-6.35541e-07
4.24689e-06
-3.76803e-07
4.07557e-06
-1.36351e-07
4.03605e-06
1.99387e-08
4.04672e-06
4.79876e-08
4.05078e-06
2.07207e-08
4.04533e-06
6.05775e-09
4.04075e-06
9.53653e-09
4.03638e-06
1.30477e-08
4.03385e-06
1.52579e-08
4.02737e-06
1.2903e-08
4.02321e-06
1.5749e-08
4.01854e-06
1.44401e-08
4.01237e-06
1.83261e-08
4.01504e-06
1.4612e-08
2.67296e-08
4.01351e-06
3.46648e-06
2.46472e-06
1.82918e-06
1.45238e-06
1.31603e-06
1.33597e-06
1.38396e-06
1.40468e-06
1.41073e-06
1.42027e-06
1.43332e-06
1.44858e-06
1.46148e-06
1.47723e-06
1.49167e-06
1.51e-06
1.52461e-06
1.55134e-06
8.6538e-08
-8.6538e-08
1.82647e-07
-9.61091e-08
2.80241e-07
-9.75941e-08
3.78766e-07
-9.85245e-08
4.78143e-07
-9.93772e-08
5.78328e-07
-1.00185e-07
6.79274e-07
-1.00946e-07
7.80928e-07
-1.01654e-07
8.83228e-07
-1.023e-07
9.86102e-07
-1.02874e-07
1.08947e-06
-1.03365e-07
1.19323e-06
-1.03763e-07
1.29729e-06
-1.04057e-07
1.40153e-06
-1.04239e-07
1.50582e-06
-1.04297e-07
1.61005e-06
-1.04224e-07
1.71406e-06
-1.04011e-07
1.81771e-06
-1.03654e-07
1.92086e-06
-1.03147e-07
2.02335e-06
-1.02488e-07
2.12502e-06
-1.01677e-07
2.22574e-06
-1.00716e-07
2.32534e-06
-9.96052e-08
2.42369e-06
-9.83456e-08
2.52063e-06
-9.6944e-08
2.61605e-06
-9.54138e-08
2.70981e-06
-9.37596e-08
2.80179e-06
-9.19798e-08
2.89188e-06
-9.0088e-08
2.97998e-06
-8.81062e-08
3.06602e-06
-8.60423e-08
3.14992e-06
-8.38962e-08
3.2316e-06
-8.16756e-08
3.31099e-06
-7.9398e-08
3.38808e-06
-7.70834e-08
3.46282e-06
-7.47391e-08
3.53518e-06
-7.23605e-08
3.60513e-06
-6.99557e-08
3.67268e-06
-6.75507e-08
3.73784e-06
-6.51582e-08
3.80061e-06
-6.27658e-08
3.86098e-06
-6.03727e-08
3.91899e-06
-5.80073e-08
3.97467e-06
-5.56863e-08
4.02807e-06
-5.3393e-08
4.07918e-06
-5.11155e-08
4.12806e-06
-4.88783e-08
4.17477e-06
-4.67049e-08
4.21935e-06
-4.45832e-08
4.26184e-06
-4.24908e-08
4.30228e-06
-4.04394e-08
4.34073e-06
-3.84561e-08
4.37728e-06
-3.65406e-08
4.41194e-06
-3.46688e-08
4.44478e-06
-3.28349e-08
4.47584e-06
-3.10611e-08
4.5052e-06
-2.93599e-08
4.53292e-06
-2.77156e-08
4.55903e-06
-2.6111e-08
4.58358e-06
-2.45537e-08
4.60664e-06
-2.30607e-08
4.62827e-06
-2.16309e-08
4.64852e-06
-2.02472e-08
4.66742e-06
-1.89029e-08
4.68503e-06
-1.76086e-08
4.7014e-06
-1.63729e-08
4.71659e-06
-1.51888e-08
4.73064e-06
-1.40436e-08
4.74357e-06
-1.29366e-08
4.75545e-06
-1.18764e-08
4.76631e-06
-1.08653e-08
4.77621e-06
-9.89543e-09
4.78517e-06
-8.95895e-09
4.79323e-06
-8.05779e-09
4.80042e-06
-7.19769e-09
4.8068e-06
-6.37734e-09
4.81239e-06
-5.58945e-09
4.81722e-06
-4.82997e-09
4.82132e-06
-4.10249e-09
4.82473e-06
-3.41034e-09
4.82748e-06
-2.75005e-09
4.8296e-06
-2.11447e-09
4.8311e-06
-1.50148e-09
4.83202e-06
-9.17522e-10
4.83239e-06
-3.76501e-10
4.83229e-06
9.95154e-11
4.83163e-06
6.62567e-10
4.83047e-06
1.16335e-09
4.82883e-06
1.63859e-09
4.82674e-06
2.08558e-09
4.82424e-06
2.50869e-09
4.82132e-06
2.91285e-09
4.81802e-06
3.30419e-09
4.81434e-06
3.68283e-09
4.81029e-06
4.04132e-09
4.80591e-06
4.3802e-09
4.80121e-06
4.70512e-09
4.79619e-06
5.0201e-09
4.79086e-06
5.32609e-09
4.78524e-06
5.62017e-09
4.77934e-06
5.89947e-09
4.77318e-06
6.16435e-09
4.76676e-06
6.41859e-09
4.76009e-06
6.66599e-09
4.75319e-06
6.90724e-09
4.74605e-06
7.13954e-09
4.73869e-06
7.36074e-09
4.73112e-06
7.5715e-09
4.72334e-06
7.77423e-09
4.71537e-06
7.9719e-09
4.7072e-06
8.1652e-09
4.69885e-06
8.35292e-09
4.69032e-06
8.53378e-09
4.68161e-06
8.70788e-09
4.67273e-06
8.87598e-09
4.66369e-06
9.03947e-09
4.65449e-06
9.19935e-09
4.64514e-06
9.35586e-09
4.63563e-06
9.50933e-09
4.62597e-06
9.65947e-09
4.61616e-06
9.80592e-09
4.60622e-06
9.9482e-09
4.59613e-06
1.00864e-08
4.58591e-06
1.02214e-08
4.57555e-06
1.03548e-08
4.56507e-06
1.04874e-08
4.55445e-06
1.06191e-08
4.5437e-06
1.07489e-08
4.53282e-06
1.08761e-08
4.52182e-06
1.1001e-08
4.5107e-06
1.11239e-08
4.49945e-06
1.1246e-08
4.48808e-06
1.13683e-08
4.47659e-06
1.14909e-08
4.46498e-06
1.16132e-08
4.45324e-06
1.17345e-08
4.44139e-06
1.18543e-08
4.42942e-06
1.19733e-08
4.41732e-06
1.20924e-08
4.40511e-06
1.22122e-08
4.39278e-06
1.23323e-08
4.38033e-06
1.24526e-08
4.36775e-06
1.25726e-08
4.35506e-06
1.26925e-08
4.34225e-06
1.28121e-08
4.32932e-06
1.29323e-08
4.31626e-06
1.30542e-08
4.30309e-06
1.31776e-08
4.28978e-06
1.3302e-08
4.27636e-06
1.34277e-08
4.2628e-06
1.35546e-08
4.24912e-06
1.36827e-08
4.23531e-06
1.38126e-08
4.22136e-06
1.39452e-08
4.20728e-06
1.40809e-08
4.19306e-06
1.42212e-08
4.17869e-06
1.43666e-08
4.16417e-06
1.4518e-08
4.1495e-06
1.46777e-08
4.13465e-06
1.48463e-08
4.11962e-06
1.50269e-08
4.1044e-06
1.52231e-08
4.08896e-06
1.54377e-08
4.07329e-06
1.56767e-08
4.05734e-06
1.59485e-08
4.04108e-06
1.626e-08
4.02445e-06
1.66242e-08
4.00739e-06
1.70601e-08
3.9898e-06
1.75878e-08
3.97156e-06
1.82465e-08
3.95248e-06
1.9081e-08
3.93231e-06
2.0164e-08
3.91067e-06
2.16434e-08
3.88714e-06
2.35336e-08
3.86026e-06
2.68733e-08
3.83089e-06
2.93731e-08
3.7883e-06
4.25865e-08
3.74932e-06
3.89845e-08
3.6098e-06
1.39514e-07
1.24199e-07
3.48561e-06
8.63585e-08
-1.72896e-07
1.84182e-07
-1.93932e-07
2.83502e-07
-1.96915e-07
3.8374e-07
-1.98763e-07
4.84863e-07
-2.005e-07
5.86851e-07
-2.02174e-07
6.89677e-07
-2.03772e-07
7.933e-07
-2.05276e-07
8.97667e-07
-2.06667e-07
1.00272e-06
-2.07923e-07
1.10837e-06
-2.09023e-07
1.21456e-06
-2.09944e-07
1.32116e-06
-2.10664e-07
1.42808e-06
-2.1116e-07
1.5352e-06
-2.11414e-07
1.64238e-06
-2.11406e-07
1.74949e-06
-2.11118e-07
1.85638e-06
-2.10542e-07
1.9629e-06
-2.09675e-07
2.06892e-06
-2.08508e-07
2.17427e-06
-2.07026e-07
2.27879e-06
-2.05233e-07
2.38233e-06
-2.03148e-07
2.48477e-06
-2.0078e-07
2.58595e-06
-1.98121e-07
2.68571e-06
-1.95181e-07
2.78395e-06
-1.91993e-07
2.88055e-06
-1.8858e-07
2.9754e-06
-1.84946e-07
3.0684e-06
-1.81098e-07
3.15942e-06
-1.77064e-07
3.24841e-06
-1.72887e-07
3.33532e-06
-1.68588e-07
3.42008e-06
-1.64156e-07
3.5026e-06
-1.59607e-07
3.58286e-06
-1.54995e-07
3.66085e-06
-1.50349e-07
3.73654e-06
-1.45653e-07
3.8099e-06
-1.40909e-07
3.88091e-06
-1.36164e-07
3.94959e-06
-1.31453e-07
4.01598e-06
-1.26762e-07
4.08006e-06
-1.22083e-07
4.14182e-06
-1.17446e-07
4.20131e-06
-1.12884e-07
4.25859e-06
-1.08393e-07
4.31367e-06
-1.03963e-07
4.36657e-06
-9.96041e-08
4.41733e-06
-9.53385e-08
4.46601e-06
-9.11723e-08
4.51267e-06
-8.70983e-08
4.55733e-06
-8.31168e-08
4.60002e-06
-7.92353e-08
4.64081e-06
-7.54607e-08
4.67977e-06
-7.17942e-08
4.71695e-06
-6.82336e-08
4.75236e-06
-6.47776e-08
4.78607e-06
-6.14245e-08
4.81814e-06
-5.81772e-08
4.84862e-06
-5.50392e-08
4.87757e-06
-5.20089e-08
4.90502e-06
-4.90793e-08
4.93102e-06
-4.62454e-08
4.95563e-06
-4.3511e-08
4.9789e-06
-4.088e-08
5.00087e-06
-3.83484e-08
5.02159e-06
-3.59069e-08
5.0411e-06
-3.35517e-08
5.05945e-06
-3.12867e-08
5.07669e-06
-2.91143e-08
5.09285e-06
-2.70289e-08
5.10798e-06
-2.50211e-08
5.12211e-06
-2.30883e-08
5.13528e-06
-2.12338e-08
5.14754e-06
-1.9459e-08
5.15893e-06
-1.77584e-08
5.16946e-06
-1.6125e-08
5.17919e-06
-1.45564e-08
5.18814e-06
-1.30547e-08
5.19635e-06
-1.16189e-08
5.20384e-06
-1.02434e-08
5.21065e-06
-8.92328e-09
5.21681e-06
-7.65919e-09
5.22235e-06
-6.45516e-09
5.22728e-06
-5.31242e-09
5.2316e-06
-4.22184e-09
5.23541e-06
-3.14796e-09
5.2387e-06
-2.12225e-09
5.24148e-06
-1.14522e-09
5.24379e-06
-2.21347e-10
5.24565e-06
6.48428e-10
5.24706e-06
1.49943e-09
5.24806e-06
2.31197e-09
5.24865e-06
3.08848e-09
5.24887e-06
3.82484e-09
5.24872e-06
4.52471e-09
5.24823e-06
5.19634e-09
5.24741e-06
5.84346e-09
5.24627e-06
6.46484e-09
5.24483e-06
7.05741e-09
5.24311e-06
7.62106e-09
5.24111e-06
8.1595e-09
5.23886e-06
8.67761e-09
5.23634e-06
9.17758e-09
5.23359e-06
9.65809e-09
5.23062e-06
1.0117e-08
5.22742e-06
1.05542e-08
5.22402e-06
1.09725e-08
5.22042e-06
1.13754e-08
5.21663e-06
1.1765e-08
5.21265e-06
1.21416e-08
5.2085e-06
1.2504e-08
5.20418e-06
1.28518e-08
5.1997e-06
1.31858e-08
5.19507e-06
1.35073e-08
5.19029e-06
1.38183e-08
5.18537e-06
1.41206e-08
5.18031e-06
1.44151e-08
5.17512e-06
1.47017e-08
5.1698e-06
1.49797e-08
5.16436e-06
1.52483e-08
5.1588e-06
1.55073e-08
5.15313e-06
1.57587e-08
5.14734e-06
1.60044e-08
5.14145e-06
1.62462e-08
5.13546e-06
1.64841e-08
5.12936e-06
1.6717e-08
5.12316e-06
1.69443e-08
5.11687e-06
1.7166e-08
5.11049e-06
1.73838e-08
5.10401e-06
1.75985e-08
5.09745e-06
1.78111e-08
5.0908e-06
1.80217e-08
5.08406e-06
1.82305e-08
5.07723e-06
1.84369e-08
5.07033e-06
1.8641e-08
5.06334e-06
1.88434e-08
5.05627e-06
1.9045e-08
5.04911e-06
1.92462e-08
5.04188e-06
1.94469e-08
5.03456e-06
1.9647e-08
5.02717e-06
1.98462e-08
5.0197e-06
2.00445e-08
5.01215e-06
2.02423e-08
5.00452e-06
2.04398e-08
4.99681e-06
2.06389e-08
4.98903e-06
2.08408e-08
4.98116e-06
2.10446e-08
4.97321e-06
2.12498e-08
4.96518e-06
2.1457e-08
4.95707e-06
2.16664e-08
4.94887e-06
2.18784e-08
4.94059e-06
2.20945e-08
4.93222e-06
2.23172e-08
4.92375e-06
2.25466e-08
4.91519e-06
2.27848e-08
4.90652e-06
2.3034e-08
4.89775e-06
2.3296e-08
4.88885e-06
2.35766e-08
4.87981e-06
2.3879e-08
4.87063e-06
2.42088e-08
4.86128e-06
2.45751e-08
4.85173e-06
2.49845e-08
4.84196e-06
2.54504e-08
4.83192e-06
2.59921e-08
4.82155e-06
2.6628e-08
4.81078e-06
2.7388e-08
4.79953e-06
2.83171e-08
4.78765e-06
2.94622e-08
4.77499e-06
3.09103e-08
4.7613e-06
3.27716e-08
4.74626e-06
3.5205e-08
4.72938e-06
3.85255e-08
4.70999e-06
4.29211e-08
4.68692e-06
4.99366e-08
4.65816e-06
5.81361e-08
4.61923e-06
8.15225e-08
4.56263e-06
9.55821e-08
4.48724e-06
2.149e-07
2.2112e-07
4.39032e-06
8.43226e-08
-2.57219e-07
1.82024e-07
-2.91634e-07
2.8147e-07
-2.9636e-07
3.81904e-07
-2.99196e-07
4.83277e-07
-3.01873e-07
5.85572e-07
-3.04469e-07
6.88764e-07
-3.06964e-07
7.92816e-07
-3.09329e-07
8.97681e-07
-3.11532e-07
1.00329e-06
-3.13537e-07
1.10958e-06
-3.15309e-07
1.21645e-06
-3.16809e-07
1.32378e-06
-3.18003e-07
1.43148e-06
-3.18852e-07
1.53939e-06
-3.19328e-07
1.64739e-06
-3.19407e-07
1.75533e-06
-3.19061e-07
1.86306e-06
-3.1827e-07
1.97041e-06
-3.17018e-07
2.0772e-06
-3.15298e-07
2.18328e-06
-3.1311e-07
2.28851e-06
-3.10461e-07
2.39271e-06
-3.07353e-07
2.49573e-06
-3.03793e-07
2.59741e-06
-2.998e-07
2.69764e-06
-2.95415e-07
2.7963e-06
-2.90649e-07
2.89322e-06
-2.85498e-07
2.98828e-06
-2.80009e-07
3.08143e-06
-2.74253e-07
3.17261e-06
-2.68245e-07
3.2617e-06
-2.61972e-07
3.34858e-06
-2.55472e-07
3.43325e-06
-2.4882e-07
3.51569e-06
-2.42049e-07
3.59585e-06
-2.35155e-07
3.67365e-06
-2.28151e-07
3.74909e-06
-2.21091e-07
3.8222e-06
-2.14023e-07
3.89299e-06
-2.06955e-07
3.96142e-06
-1.99878e-07
4.02747e-06
-1.92817e-07
4.09122e-06
-1.85825e-07
4.1527e-06
-1.78927e-07
4.21191e-06
-1.72101e-07
4.26887e-06
-1.65345e-07
4.3236e-06
-1.58697e-07
4.37619e-06
-1.52195e-07
4.42668e-06
-1.4583e-07
4.47509e-06
-1.39577e-07
4.52144e-06
-1.33448e-07
4.5658e-06
-1.2748e-07
4.60825e-06
-1.21684e-07
4.64882e-06
-1.16036e-07
4.68755e-06
-1.10521e-07
4.72448e-06
-1.0516e-07
4.75967e-06
-9.99737e-08
4.7932e-06
-9.49552e-08
4.82511e-06
-9.00842e-08
4.85543e-06
-8.53573e-08
4.88421e-06
-8.07875e-08
4.91151e-06
-7.63808e-08
4.93739e-06
-7.21275e-08
4.9619e-06
-6.80163e-08
4.98506e-06
-6.40468e-08
5.00694e-06
-6.02227e-08
5.02757e-06
-5.65423e-08
5.04702e-06
-5.29984e-08
5.06532e-06
-4.95861e-08
5.08251e-06
-4.63033e-08
5.09863e-06
-4.31481e-08
5.11372e-06
-4.01155e-08
5.12783e-06
-3.7201e-08
5.141e-06
-3.44028e-08
5.15326e-06
-3.1718e-08
5.16465e-06
-2.91423e-08
5.17519e-06
-2.6671e-08
5.18494e-06
-2.43014e-08
5.19391e-06
-2.20317e-08
5.20215e-06
-1.98578e-08
5.20968e-06
-1.77741e-08
5.21654e-06
-1.57767e-08
5.22274e-06
-1.3865e-08
5.22833e-06
-1.20395e-08
5.23331e-06
-1.02966e-08
5.23772e-06
-8.62762e-09
5.24159e-06
-7.02079e-09
5.24495e-06
-5.48162e-09
5.24782e-06
-4.01292e-09
5.25021e-06
-2.61427e-09
5.25214e-06
-1.2799e-09
5.25364e-06
3.75465e-13
5.25472e-06
1.22838e-09
5.25541e-06
2.39644e-09
5.25573e-06
3.50566e-09
5.25569e-06
4.56597e-09
5.2553e-06
5.58315e-09
5.25459e-06
6.55908e-09
5.25356e-06
7.49157e-09
5.25224e-06
8.37909e-09
5.25064e-06
9.2246e-09
5.24876e-06
1.00342e-08
5.24663e-06
1.0813e-08
5.24424e-06
1.1562e-08
5.24162e-06
1.22791e-08
5.23878e-06
1.29625e-08
5.23572e-06
1.36135e-08
5.23245e-06
1.42364e-08
5.22899e-06
1.48357e-08
5.22534e-06
1.54141e-08
5.22151e-06
1.59714e-08
5.21751e-06
1.65066e-08
5.21334e-06
1.7019e-08
5.20902e-06
1.75095e-08
5.20455e-06
1.79804e-08
5.19993e-06
1.84351e-08
5.19517e-06
1.88768e-08
5.19028e-06
1.93064e-08
5.18526e-06
1.97234e-08
5.18011e-06
2.01258e-08
5.17485e-06
2.05118e-08
5.16948e-06
2.08832e-08
5.16399e-06
2.12439e-08
5.1584e-06
2.15973e-08
5.1527e-06
2.19449e-08
5.1469e-06
2.22851e-08
5.141e-06
2.26158e-08
5.13501e-06
2.2936e-08
5.12892e-06
2.32479e-08
5.12275e-06
2.35537e-08
5.1165e-06
2.38558e-08
5.11015e-06
2.41547e-08
5.10373e-06
2.44495e-08
5.09722e-06
2.47399e-08
5.09063e-06
2.50257e-08
5.08396e-06
2.53075e-08
5.07722e-06
2.55868e-08
5.0704e-06
2.58652e-08
5.0635e-06
2.61432e-08
5.05653e-06
2.64199e-08
5.04948e-06
2.66946e-08
5.04236e-06
2.69673e-08
5.03517e-06
2.7238e-08
5.0279e-06
2.75073e-08
5.02056e-06
2.77765e-08
5.01316e-06
2.8048e-08
5.00567e-06
2.83232e-08
4.99812e-06
2.86013e-08
4.99049e-06
2.88805e-08
4.98278e-06
2.91618e-08
4.975e-06
2.94463e-08
4.96714e-06
2.97343e-08
4.95921e-06
3.00288e-08
4.95119e-06
3.03334e-08
4.94309e-06
3.06487e-08
4.9349e-06
3.09764e-08
4.92661e-06
3.13206e-08
4.91823e-06
3.16841e-08
4.90973e-06
3.20753e-08
4.9011e-06
3.25011e-08
4.89235e-06
3.29687e-08
4.88343e-06
3.34927e-08
4.87433e-06
3.40847e-08
4.86501e-06
3.47629e-08
4.85545e-06
3.55583e-08
4.84558e-06
3.65013e-08
4.83533e-06
3.76362e-08
4.82461e-06
3.90337e-08
4.81331e-06
4.07664e-08
4.80125e-06
4.29646e-08
4.78822e-06
4.58036e-08
4.77391e-06
4.95171e-08
4.75785e-06
5.45823e-08
4.73943e-06
6.13381e-08
4.71746e-06
7.19127e-08
4.69036e-06
8.5231e-08
4.65626e-06
1.1563e-07
4.60925e-06
1.42586e-07
4.56791e-06
2.56238e-07
3.22995e-07
4.46604e-06
8.10617e-08
-3.38281e-07
1.78738e-07
-3.89311e-07
2.78448e-07
-3.9607e-07
3.79225e-07
-3.99973e-07
4.81019e-07
-4.03667e-07
5.8383e-07
-4.07279e-07
6.87641e-07
-4.10775e-07
7.92423e-07
-4.14111e-07
8.98127e-07
-4.17237e-07
1.00469e-06
-4.20101e-07
1.11203e-06
-4.22649e-07
1.22005e-06
-4.24825e-07
1.32862e-06
-4.26575e-07
1.43762e-06
-4.27848e-07
1.54689e-06
-4.28601e-07
1.65628e-06
-4.28794e-07
1.7656e-06
-4.28387e-07
1.87469e-06
-4.27357e-07
1.98337e-06
-4.25701e-07
2.09148e-06
-4.23403e-07
2.19881e-06
-4.20443e-07
2.30518e-06
-4.16831e-07
2.41043e-06
-4.12606e-07
2.51442e-06
-4.07785e-07
2.61698e-06
-4.02362e-07
2.71794e-06
-3.96374e-07
2.81718e-06
-3.89883e-07
2.9146e-06
-3.82925e-07
3.01012e-06
-3.75528e-07
3.10359e-06
-3.67722e-07
3.1949e-06
-3.59549e-07
3.284e-06
-3.51076e-07
3.37089e-06
-3.42366e-07
3.4555e-06
-3.33429e-07
3.53773e-06
-3.2428e-07
3.61756e-06
-3.14985e-07
3.69503e-06
-3.0562e-07
3.77014e-06
-2.96197e-07
3.84283e-06
-2.86712e-07
3.91308e-06
-2.77205e-07
3.98094e-06
-2.67742e-07
4.04648e-06
-2.58356e-07
4.1097e-06
-2.49038e-07
4.17056e-06
-2.39791e-07
4.22911e-06
-2.30656e-07
4.28544e-06
-2.21674e-07
4.3396e-06
-2.12854e-07
4.39159e-06
-2.04184e-07
4.44143e-06
-1.95666e-07
4.48918e-06
-1.8733e-07
4.53494e-06
-1.79205e-07
4.57874e-06
-1.71286e-07
4.62061e-06
-1.63553e-07
4.66058e-06
-1.56007e-07
4.69873e-06
-1.48671e-07
4.73514e-06
-1.41564e-07
4.76984e-06
-1.34674e-07
4.80286e-06
-1.27979e-07
4.83426e-06
-1.2148e-07
4.86409e-06
-1.15192e-07
4.89243e-06
-1.09124e-07
4.91931e-06
-1.03263e-07
4.94478e-06
-9.7592e-08
4.96887e-06
-9.21099e-08
4.99165e-06
-8.68253e-08
5.01316e-06
-8.17382e-08
5.03346e-06
-7.6838e-08
5.05257e-06
-7.21139e-08
5.07055e-06
-6.75633e-08
5.08744e-06
-6.31875e-08
5.10327e-06
-5.89829e-08
5.1181e-06
-5.4942e-08
5.13195e-06
-5.10577e-08
5.14488e-06
-4.73259e-08
5.1569e-06
-4.37434e-08
5.16807e-06
-4.03064e-08
5.17841e-06
-3.70104e-08
5.18796e-06
-3.38513e-08
5.19675e-06
-3.08236e-08
5.20481e-06
-2.79208e-08
5.21217e-06
-2.51374e-08
5.21887e-06
-2.24708e-08
5.22492e-06
-1.99205e-08
5.23037e-06
-1.74837e-08
5.23522e-06
-1.51529e-08
5.23952e-06
-1.29195e-08
5.24327e-06
-1.07784e-08
5.24652e-06
-8.72989e-09
5.24928e-06
-6.77441e-09
5.25158e-06
-4.90692e-09
5.25342e-06
-3.12238e-09
5.25483e-06
-1.41402e-09
5.25584e-06
2.24762e-10
5.25646e-06
1.77757e-09
5.2567e-06
3.25803e-09
5.25659e-06
4.67475e-09
5.25615e-06
6.03152e-09
5.25537e-06
7.3306e-09
5.2543e-06
8.56988e-09
5.25293e-06
9.74908e-09
5.25128e-06
1.0874e-08
5.24936e-06
1.19525e-08
5.24718e-06
1.29892e-08
5.24476e-06
1.39841e-08
5.2421e-06
1.49348e-08
5.23923e-06
1.584e-08
5.23614e-06
1.67025e-08
5.23285e-06
1.75278e-08
5.22936e-06
1.8322e-08
5.22569e-06
1.90876e-08
5.22183e-06
1.98241e-08
5.21781e-06
2.05302e-08
5.21362e-06
2.12055e-08
5.20928e-06
2.18506e-08
5.20479e-06
2.24693e-08
5.20016e-06
2.30668e-08
5.19539e-06
2.3647e-08
5.19049e-06
2.42109e-08
5.18545e-06
2.47566e-08
5.1803e-06
2.52813e-08
5.17503e-06
2.57832e-08
5.16964e-06
2.62661e-08
5.16415e-06