/*--------------------------------*- C++ -*----------------------------------*\
| =========                 |                                                 |
| \\      /  F ield         | OpenFOAM: The Open Source CFD Toolbox           |
|  \\    /   O peration     | Version:  2.1.x                                 |
|   \\  /    A nd           | Web:      www.OpenFOAM.org                      |
|    \\/     M anipulation  |                                                 |
\*---------------------------------------------------------------------------*/
FoamFile
{
    version     2.0;
    format      ascii;
    class       volScalarField;
    location    "0.001";
    object      pMean;
}
// * * * * * * * * * * * * * * * * * * * * * * * * * * * * * * * * * * * * * //

dimensions      [0 2 -2 0 0 0 0];

internalField   nonuniform List<scalar> 
12225
(
919.702
893.447
880.592
873.214
866.453
859.226
851.678
843.875
836.169
828.545
820.179
812.358
803.087
792.985
781.889
766.523
747.288
703.389
917.239
893.183
880.643
873.262
866.485
859.236
851.678
843.88
836.171
828.58
820.233
812.318
803.314
793.079
781.846
768.459
748.218
726.535
915.659
893.25
881.019
873.51
866.625
859.311
851.705
843.935
836.244
828.648
820.496
812.367
803.731
793.414
782.943
770.271
754.736
737.874
914.314
893.275
881.384
873.797
866.84
859.457
851.77
844.056
836.354
828.851
820.762
812.749
804.214
794.635
784.51
773.347
760.768
747.225
912.912
893.18
881.682
874.069
867.065
859.618
851.893
844.178
836.573
829.043
821.184
813.192
804.905
795.944
786.366
776.69
766.127
755.848
911.69
893.03
881.934
874.338
867.297
859.828
852.059
844.378
836.863
829.331
821.764
813.815
805.883
797.475
788.727
780.024
771.323
763.212
910.387
892.771
882.118
874.592
867.555
860.065
852.29
844.662
837.186
829.85
822.343
814.736
807.113
799.265
791.338
783.652
776.397
769.676
909.708
892.567
882.227
874.787
867.765
860.284
852.544
844.942
837.612
830.311
823.045
815.677
808.297
800.987
793.709
786.74
780.299
774.586
909.279
892.394
882.312
874.977
867.988
860.531
852.805
845.276
838.001
830.862
823.736
816.579
809.549
802.618
795.821
789.449
783.677
778.63
908.578
892.168
882.361
875.151
868.223
860.802
853.141
845.674
838.529
831.523
824.583
817.735
810.988
804.453
798.227
792.39
787.101
782.528
908.093
892.012
882.451
875.372
868.516
861.159
853.564
846.202
839.181
832.352
825.649
819.065
812.677
806.584
800.79
795.419
790.646
786.509
907.825
891.823
882.512
875.607
868.852
861.577
854.084
846.847
839.986
833.365
826.903
820.633
814.607
808.887
803.537
798.627
794.196
790.28
907.189
891.665
882.613
875.871
869.246
862.094
854.731
847.65
840.975
834.577
828.384
822.42
816.737
811.397
806.43
801.858
797.736
794.11
907.234
891.689
882.779
876.209
869.734
862.719
855.508
848.606
842.139
835.984
830.064
824.404
819.049
814.04
809.391
805.119
801.246
797.777
906.997
891.693
883.017
876.636
870.333
863.486
856.451
849.747
843.499
837.587
831.933
826.554
821.49
816.765
812.378
808.334
804.64
801.302
907.276
892.109
883.496
877.227
871.08
864.406
857.556
851.056
845.026
839.346
833.938
828.811
823.996
819.502
815.322
811.452
807.894
804.641
907.456
892.409
884.034
877.971
871.968
865.442
858.776
852.483
846.665
841.202
836.013
831.102
826.491
822.181
818.161
814.421
810.957
807.763
908.009
893.115
884.825
878.839
872.941
866.548
860.037
853.907
848.256
842.96
837.937
833.186
828.721
824.541
820.629
816.976
813.575
810.416
908.913
893.936
885.62
879.666
873.824
867.505
861.091
855.074
849.54
844.36
839.448
834.801
830.431
826.333
822.491
818.892
815.528
812.391
909.273
894.522
886.33
880.383
874.572
868.303
861.942
855.985
850.52
845.409
840.565
835.981
831.669
827.621
823.82
820.254
816.912
813.788
910.297
895.463
887.111
881.046
875.188
868.922
862.587
856.668
851.246
846.18
841.378
836.834
832.559
828.542
824.768
821.222
817.895
814.78
911.867
896.449
887.816
881.625
875.685
869.387
863.059
857.164
851.769
846.732
841.958
837.44
833.188
829.193
825.436
821.904
818.587
815.478
912.754
897.258
888.406
882.029
876.007
869.697
863.387
857.515
852.141
847.122
842.365
837.864
833.626
829.643
825.896
822.373
819.063
815.961
913.78
898.024
888.876
882.305
876.21
869.895
863.605
857.752
852.393
847.385
842.638
838.147
833.918
829.942
826.201
822.683
819.378
816.281
915.068
898.788
889.23
882.442
876.282
869.984
863.73
857.901
852.554
847.552
842.812
838.327
834.103
830.129
826.39
822.873
819.57
816.478
916.319
899.484
889.448
882.432
876.228
869.978
863.787
857.99
852.65
847.649
842.912
838.431
834.209
830.234
826.492
822.973
819.669
816.579
917.793
900.102
889.537
882.315
876.086
869.901
863.785
858.028
852.692
847.69
842.956
838.478
834.258
830.279
826.533
823.007
819.696
816.606
919.455
900.646
889.437
882.059
875.872
869.798
863.776
858.052
852.713
847.703
842.969
838.493
834.271
830.289
826.536
822.997
819.673
816.577
921.082
901.083
889.18
881.664
875.55
869.642
863.745
858.044
852.69
847.675
842.943
838.47
834.247
830.262
826.504
822.947
819.599
816.447
923.672
901.814
889.288
881.615
875.465
869.597
863.746
858.066
852.709
847.684
842.947
838.474
834.249
830.262
826.501
822.937
819.586
816.408
748.308
748.287
748.239
748.165
748.062
747.931
747.77
747.579
747.356
747.102
746.815
746.494
746.14
745.751
745.326
744.866
744.369
743.835
743.265
742.657
742.011
741.327
740.605
739.845
739.048
738.212
737.339
736.428
735.48
734.495
733.473
732.415
731.322
730.193
729.029
727.831
726.599
725.334
724.036
722.705
721.343
719.949
718.525
717.07
715.586
714.072
712.529
710.958
709.359
707.732
706.078
704.397
702.69
700.956
699.197
697.413
695.603
693.769
691.909
690.026
688.118
686.187
684.232
682.253
680.251
678.226
676.178
674.107
672.013
669.897
667.759
665.598
663.414
661.209
658.981
656.731
654.459
652.166
649.85
647.512
645.152
642.771
640.367
637.942
635.494
633.025
630.533
628.02
625.484
622.926
620.346
617.744
615.119
612.472
609.802
607.11
604.395
601.658
598.897
596.114
593.308
590.478
587.625
584.749
581.849
578.926
575.979
573.007
570.012
566.993
563.949
560.88
557.787
554.67
551.527
548.359
545.166
541.947
538.702
535.432
532.136
528.813
525.465
522.089
518.687
515.258
511.801
508.318
504.807
501.268
497.701
494.106
490.482
486.83
483.149
479.44
475.701
471.932
468.134
464.306
460.447
456.559
452.64
448.69
444.709
440.696
436.652
432.577
428.469
424.329
420.156
415.951
411.713
407.442
403.137
398.799
394.426
390.02
385.579
381.104
376.594
372.05
367.47
362.856
358.208
353.525
348.807
344.056
339.272
334.456
329.61
324.737
319.839
314.921
309.992
305.064
300.159
295.319
290.611
286.243
748.335
748.314
748.268
748.194
748.093
747.963
747.803
747.613
747.392
747.139
746.853
746.534
746.18
745.792
745.369
744.909
744.413
743.88
743.31
742.702
742.057
741.373
740.651
739.891
739.093
738.257
737.383
736.471
735.522
734.536
733.514
732.455
731.36
730.23
729.065
727.866
726.632
725.366
724.066
722.734
721.371
719.976
718.55
717.094
715.608
714.093
712.549
710.977
709.377
707.749
706.094
704.412
702.704
700.97
699.21
697.424
695.614
693.778
691.918
690.034
688.126
686.194
684.238
682.259
680.256
678.231
676.182
674.111
672.017
669.9
667.761
665.6
663.416
661.21
658.982
656.732
654.46
652.166
649.85
647.512
645.152
642.77
640.366
637.94
635.493
633.023
630.531
628.017
625.482
622.924
620.344
617.741
615.116
612.469
609.8
607.107
604.393
601.655
598.895
596.111
593.305
590.475
587.622
584.746
581.846
578.923
575.975
573.004
570.009
566.989
563.946
560.877
557.784
554.666
551.524
548.356
545.162
541.943
538.699
535.429
532.132
528.81
525.461
522.086
518.683
515.254
511.798
508.314
504.803
501.264
497.697
494.102
490.479
486.827
483.146
479.436
475.697
471.928
468.13
464.302
460.444
456.555
452.636
448.686
444.705
440.692
436.648
432.573
428.465
424.325
420.153
415.947
411.709
407.438
403.133
398.795
394.422
390.016
385.575
381.1
376.59
372.045
367.466
362.852
358.203
353.52
348.802
344.051
339.267
334.451
329.604
324.73
319.831
314.912
309.981
305.049
300.137
295.272
290.483
285.727
748.39
748.369
748.324
748.253
748.153
748.025
747.868
747.68
747.461
747.211
746.928
746.611
746.26
745.874
745.453
744.995
744.501
743.969
743.4
742.793
742.148
741.464
740.742
739.982
739.183
738.346
737.47
736.557
735.607
734.619
733.594
732.533
731.436
730.303
729.136
727.934
726.698
725.429
724.127
722.793
721.427
720.029
718.601
717.143
715.655
714.137
712.591
711.017
709.414
707.784
706.127
704.444
702.734
700.998
699.236
697.449
695.637
693.8
691.939
690.053
688.144
686.21
684.253
682.273
680.27
678.243
676.194
674.121
672.026
669.909
667.769
665.607
663.423
661.216
658.988
656.737
654.464
652.17
649.853
647.515
645.154
642.772
640.368
637.942
635.494
633.024
630.532
628.018
625.482
622.924
620.343
617.741
615.116
612.468
609.799
607.106
604.391
601.653
598.893
596.109
593.303
590.473
587.62
584.744
581.844
578.92
575.973
573.002
570.006
566.987
563.943
560.874
557.781
554.664
551.521
548.353
545.159
541.94
538.696
535.426
532.129
528.807
525.458
522.082
518.68
515.251
511.795
508.311
504.8
501.261
497.694
494.099
490.475
486.823
483.142
479.433
475.694
471.925
468.127
464.299
460.44
456.552
452.632
448.682
444.701
440.689
436.645
432.569
428.461
424.321
420.149
415.944
411.706
407.434
403.129
398.791
394.418
390.012
385.571
381.096
376.586
372.041
367.462
362.848
358.199
353.515
348.797
344.046
339.261
334.444
329.597
324.721
319.82
314.898
309.963
305.023
300.096
295.192
290.331
285.467
748.469
748.449
748.407
748.338
748.242
748.117
747.964
747.78
747.566
747.319
747.04
746.728
746.381
745.998
745.58
745.126
744.634
744.105
743.537
742.931
742.287
741.603
740.881
740.12
739.32
738.481
737.604
736.689
735.736
734.745
733.718
732.653
731.553
730.417
729.246
728.04
726.801
725.528
724.222
722.884
721.514
720.113
718.681
717.219
715.728
714.207
712.657
711.08
709.474
707.841
706.181
704.495
702.782
701.044
699.279
697.49
695.676
693.837
691.973
690.086
688.174
686.239
684.28
682.298
680.293
678.265
676.214
674.14
672.044
669.926
667.785
665.621
663.436
661.229
658.999
656.747
654.474
652.178
649.861
647.522
645.161
642.778
640.373
637.947
635.498
633.028
630.535
628.021
625.484
622.926
620.345
617.742
615.117
612.469
609.799
607.107
604.391
601.653
598.893
596.109
593.302
590.472
587.619
584.743
581.842
578.919
575.971
573
570.004
566.985
563.941
560.872
557.779
554.661
551.518
548.35
545.157
541.938
538.693
535.423
532.127
528.804
525.455
522.08
518.677
515.248
511.792
508.308
504.797
501.258
497.691
494.096
490.472
486.82
483.139
479.43
475.69
471.922
468.124
464.295
460.437
456.548
452.629
448.679
444.698
440.686
436.642
432.566
428.458
424.318
420.146
415.941
411.702
407.431
403.126
398.787
394.415
390.008
385.567
381.092
376.582
372.037
367.458
362.843
358.194
353.51
348.792
344.039
339.254
334.436
329.587
324.709
319.805
314.879
309.937
304.987
300.039
295.098
290.17
285.199
748.569
748.552
748.513
748.448
748.356
748.237
748.088
747.911
747.702
747.462
747.189
746.882
746.541
746.164
745.751
745.301
744.813
744.286
743.722
743.118
742.474
741.792
741.069
740.307
739.506
738.665
737.786
736.868
735.911
734.917
733.885
732.817
731.712
730.571
729.395
728.185
726.94
725.662
724.351
723.008
721.633
720.227
718.791
717.324
715.828
714.302
712.749
711.167
709.557
707.92
706.256
704.566
702.849
701.107
699.34
697.547
695.73
693.888
692.021
690.131
688.217
686.279
684.318
682.334
680.326
678.296
676.243
674.168
672.07
669.95
667.807
665.642
663.456
661.247
659.016
656.763
654.488
652.192
649.874
647.534
645.172
642.788
640.382
637.955
635.506
633.034
630.541
628.026
625.489
622.93
620.349
617.745
615.12
612.472
609.801
607.108
604.393
601.655
598.893
596.109
593.302
590.472
587.619
584.742
581.842
578.918
575.97
572.999
570.003
566.983
563.939
560.871
557.777
554.659
551.516
548.348
545.155
541.936
538.691
535.421
532.124
528.802
525.453
522.077
518.675
515.245
511.789
508.305
504.794
501.255
497.688
494.093
490.469
486.817
483.136
479.427
475.687
471.919
468.121
464.292
460.434
456.545
452.626
448.676
444.695
440.683
436.639
432.563
428.455
424.315
420.142
415.937
411.699
407.428
403.123
398.784
394.411
390.005
385.564
381.088
376.578
372.033
367.453
362.839
358.189
353.504
348.785
344.032
339.246
334.426
329.575
324.695
319.787
314.856
309.905
304.941
299.971
294.992
290.003
284.947
748.685
748.67
748.635
748.576
748.49
748.378
748.237
748.068
747.867
747.636
747.371
747.073
746.739
746.37
745.963
745.519
745.037
744.515
743.954
743.352
742.711
742.029
741.306
740.544
739.741
738.898
738.015
737.093
736.132
735.133
734.097
733.023
731.912
730.766
729.584
728.367
727.116
725.832
724.515
723.165
721.784
720.372
718.929
717.457
715.955
714.424
712.864
711.277
709.662
708.02
706.351
704.656
702.935
701.188
699.417
697.62
695.799
693.953
692.083
690.189
688.272
686.331
684.367
682.38
680.37
678.337
676.282
674.204
672.104
669.981
667.837
665.67
663.482
661.271
659.039
656.784
654.508
652.21
649.891
647.549
645.186
642.801
640.395
637.966
635.516
633.044
630.55
628.034
625.497
622.937
620.355
617.751
615.125
612.476
609.805
607.112
604.396
601.657
598.896
596.111
593.304
590.474
587.62
584.743
581.842
578.918
575.97
572.998
570.003
566.983
563.938
560.87
557.776
554.658
551.515
548.347
545.153
541.934
538.689
535.419
532.122
528.799
525.45
522.075
518.672
515.243
511.787
508.303
504.792
501.253
497.686
494.09
490.467
486.815
483.134
479.424
475.685
471.916
468.118
464.289
460.431
456.542
452.623
448.673
444.692
440.68
436.636
432.56
428.452
424.312
420.139
415.934
411.696
407.424
403.119
398.781
394.408
390.001
385.56
381.084
376.574
372.029
367.449
362.834
358.183
353.498
348.779
344.024
339.236
334.415
329.562
324.678
319.766
314.828
309.867
304.889
299.894
294.88
289.836
284.723
748.809
748.797
748.768
748.716
748.639
748.536
748.405
748.246
748.058
747.837
747.584
747.297
746.974
746.615
746.218
745.782
745.306
744.791
744.234
743.636
742.997
742.316
741.594
740.83
740.025
739.179
738.292
737.366
736.4
735.395
734.352
733.272
732.154
731.001
729.811
728.587
727.329
726.037
724.712
723.355
721.966
720.546
719.096
717.617
716.108
714.57
713.003
711.41
709.788
708.14
706.466
704.765
703.039
701.287
699.51
697.708
695.882
694.032
692.158
690.26
688.339
686.394
684.427
682.436
680.423
678.387
676.329
674.248
672.145
670.02
667.873
665.704
663.514
661.301
659.067
656.81
654.533
652.233
649.912
647.569
645.205
642.818
640.41
637.981
635.53
633.057
630.562
628.045
625.506
622.946
620.363
617.758
615.131
612.482
609.811
607.117
604.4
601.661
598.899
596.114
593.306
590.476
587.622
584.744
581.843
578.919
575.971
572.999
570.003
566.983
563.938
560.869
557.776
554.657
551.514
548.345
545.152
541.933
538.688
535.417
532.12
528.798
525.449
522.073
518.67
515.241
511.784
508.301
504.789
501.25
497.683
494.088
490.464
486.812
483.131
479.421
475.682
471.913
468.115
464.287
460.428
456.54
452.62
448.67
444.689
440.677
436.633
432.557
428.449
424.309
420.136
415.931
411.693
407.421
403.116
398.777
394.405
389.998
385.556
381.081
376.57
372.024
367.444
362.828
358.178
353.492
348.771
344.016
339.226
334.403
329.547
324.659
319.741
314.796
309.825
304.831
299.812
294.765
289.676
284.513
748.929
748.921
748.9
748.857
748.791
748.701
748.585
748.441
748.267
748.062
747.825
747.552
747.244
746.898
746.513
746.088
745.621
745.113
744.563
743.97
743.333
742.654
741.932
741.166
740.359
739.509
738.618
737.686
736.714
735.703
734.652
733.564
732.438
731.276
730.077
728.844
727.577
726.276
724.942
723.576
722.179
720.75
719.292
717.804
716.286
714.74
713.166
711.565
709.936
708.281
706.6
704.893
703.16
701.402
699.619
697.812
695.98
694.125
692.246
690.343
688.418
686.469
684.497
682.502
680.485
678.446
676.384
674.3
672.194
670.066
667.917
665.745
663.552
661.337
659.1
656.842
654.562
652.26
649.937
647.593
645.227
642.839
640.43
637.999
635.546
633.072
630.576
628.058
625.518
622.957
620.373
617.767
615.14
612.49
609.817
607.123
604.406
601.666
598.903
596.118
593.31
590.479
587.624
584.747
581.845
578.921
575.972
573
570.004
566.983
563.938
560.869
557.775
554.657
551.513
548.345
545.151
541.932
538.687
535.416
532.119
528.796
525.447
522.071
518.669
515.239
511.783
508.299
504.787
501.248
497.681
494.086
490.462
486.81
483.129
479.419
475.68
471.911
468.112
464.284
460.426
456.537
452.618
448.668
444.686
440.674
436.63
432.554
428.446
424.306
420.133
415.928
411.69
407.418
403.113
398.774
394.401
389.994
385.553
381.077
376.566
372.02
367.439
362.823
358.172
353.485
348.763
344.006
339.215
334.389
329.53
324.638
319.715
314.762
309.779
304.769
299.728
294.65
289.522
284.318
749.033
749.03
749.019
748.988
748.937
748.864
748.766
748.642
748.489
748.305
748.088
747.836
747.546
747.217
746.848
746.437
745.982
745.484
744.941
744.354
743.721
743.044
742.321
741.555
740.744
739.89
738.994
738.055
737.076
736.056
734.996
733.899
732.763
731.591
730.382
729.139
727.861
726.549
725.205
723.829
722.421
720.983
719.514
718.017
716.49
714.935
713.352
711.742
710.105
708.442
706.753
705.038
703.298
701.533
699.744
697.93
696.093
694.231
692.347
690.439
688.508
686.554
684.577
682.578
680.557
678.513
676.448
674.36
672.251
670.119
667.966
665.792
663.596
661.378
659.139
656.878
654.596
652.292
649.967
647.62
645.252
642.863
640.452
638.019
635.565
633.089
630.592
628.073
625.532
622.97
620.385
617.778
615.15
612.499
609.826
607.131
604.413
601.672
598.909
596.123
593.315
590.483
587.628
584.75
581.848
578.923
575.974
573.001
570.005
566.984
563.939
560.87
557.776
554.657
551.513
548.344
545.15
541.931
538.686
535.415
532.118
528.795
525.446
522.07
518.667
515.238
511.781
508.297
504.785
501.246
497.679
494.084
490.46
486.808
483.127
479.417
475.677
471.909
468.11
464.282
460.423
456.535
452.615
448.665
444.684
440.671
436.627
432.551
428.443
424.303
420.13
415.925
411.687
407.415
403.11
398.771
394.398
389.991
385.549
381.073
376.562
372.015
367.434
362.817
358.165
353.478
348.755
343.996
339.203
334.375
329.512
324.616
319.686
314.725
309.731
304.705
299.642
294.538
289.375
284.138
749.1
749.105
749.106
749.091
749.06
749.01
748.937
748.84
748.714
748.558
748.369
748.143
747.878
747.572
747.223
746.829
746.39
745.904
745.371
744.79
744.162
743.487
742.764
741.996
741.181
740.322
739.419
738.472
737.484
736.454
735.385
734.276
733.129
731.945
730.725
729.469
728.18
726.856
725.5
724.112
722.693
721.243
719.764
718.255
716.718
715.153
713.56
711.94
710.294
708.622
706.924
705.201
703.453
701.68
699.883
698.063
696.218
694.35
692.459
690.545
688.608
686.649
684.667
682.663
680.637
678.589
676.519
674.427
672.314
670.179
668.022
665.844
663.645
661.424
659.182
656.919
654.634
652.328
650
647.651
645.281
642.89
640.477
638.043
635.587
633.11
630.611
628.091
625.548
622.985
620.399
617.791
615.161
612.51
609.836
607.14
604.421
601.68
598.916
596.129
593.32
590.488
587.632
584.754
581.852
578.926
575.977
573.004
570.007
566.986
563.94
560.871
557.776
554.657
551.513
548.344
545.15
541.931
538.685
535.414
532.117
528.794
525.445
522.069
518.666
515.236
511.779
508.295
504.784
501.244
497.677
494.082
490.458
486.806
483.125
479.415
475.675
471.906
468.108
464.28
460.421
456.532
452.613
448.663
444.681
440.669
436.625
432.549
428.441
424.301
420.128
415.922
411.684
407.412
403.107
398.768
394.394
389.987
385.545
381.069
376.557
372.011
367.429
362.812
358.159
353.47
348.746
343.986
339.19
334.359
329.493
324.592
319.657
314.686
309.681
304.64
299.557
294.428
289.237
283.969
749.106
749.12
749.137
749.144
749.14
749.12
749.082
749.021
748.933
748.815
748.661
748.47
748.237
747.961
747.637
747.266
746.846
746.375
745.853
745.281
744.658
743.985
743.262
742.491
741.672
740.806
739.894
738.939
737.94
736.899
735.817
734.696
733.536
732.338
731.105
729.836
728.533
727.196
725.826
724.425
722.993
721.531
720.039
718.518
716.969
715.393
713.789
712.159
710.502
708.82
707.113
705.38
703.623
701.842
700.037
698.208
696.356
694.481
692.583
690.663
688.72
686.754
684.767
682.757
680.726
678.673
676.598
674.502
672.384
670.245
668.084
665.903
663.7
661.476
659.23
656.964
654.676
652.367
650.037
647.686
645.314
642.92
640.505
638.069
635.612
633.133
630.632
628.11
625.567
623.001
620.414
617.806
615.175
612.522
609.847
607.15
604.43
601.688
598.924
596.137
593.327
590.494
587.638
584.758
581.856
578.93
575.98
573.007
570.009
566.988
563.942
560.872
557.778
554.658
551.514
548.345
545.15
541.931
538.685
535.414
532.117
528.793
525.444
522.068
518.665
515.235
511.778
508.294
504.782
501.243
497.676
494.08
490.456
486.804
483.123
479.413
475.673
471.904
468.106
464.277
460.419
456.53
452.611
448.66
444.679
440.667
436.622
432.546
428.438
424.298
420.125
415.92
411.681
407.409
403.104
398.764
394.391
389.984
385.542
381.065
376.553
372.006
367.424
362.806
358.152
353.463
348.737
343.975
339.177
334.344
329.474
324.568
319.626
314.647
309.631
304.575
299.474
294.322
289.106
283.813
749.018
749.043
749.081
749.117
749.149
749.172
749.18
749.169
749.132
749.064
748.959
748.813
748.622
748.383
748.092
747.749
747.352
746.899
746.391
745.829
745.211
744.54
743.817
743.041
742.216
741.342
740.421
739.454
738.443
737.389
736.293
735.157
733.982
732.77
731.521
730.237
728.919
727.567
726.183
724.767
723.321
721.844
720.339
718.805
717.243
715.654
714.038
712.396
710.729
709.036
707.318
705.575
703.809
702.018
700.204
698.367
696.507
694.624
692.718
690.791
688.841
686.869
684.875
682.859
680.822
678.764
676.684
674.583
672.46
670.317
668.152
665.966
663.759
661.532
659.283
657.013
654.723
652.411
650.078
647.724
645.349
642.953
640.536
638.098
635.639
633.158
630.656
628.132
625.587
623.02
620.432
617.822
615.19
612.536
609.86
607.162
604.441
601.698
598.933
596.145
593.334
590.5
587.644
584.764
581.861
578.934
575.984
573.01
570.012
566.991
563.945
560.874
557.779
554.66
551.515
548.346
545.151
541.931
538.685
535.414
532.117
528.793
525.443
522.067
518.664
515.234
511.777
508.293
504.781
501.242
497.674
494.079
490.455
486.802
483.121
479.411
475.671
471.903
468.104
464.276
460.417
456.528
452.609
448.658
444.677
440.664
436.62
432.544
428.436
424.296
420.123
415.917
411.678
407.406
403.101
398.761
394.388
389.98
385.538
381.061
376.549
372.002
367.419
362.8
358.145
353.455
348.728
343.964
339.164
334.328
329.454
324.543
319.595
314.608
309.581
304.511
299.393
294.221
288.983
283.668
748.79
748.827
748.892
748.967
749.049
749.131
749.204
749.261
749.293
749.292
749.252
749.166
749.03
748.838
748.589
748.281
747.911
747.48
746.988
746.436
745.825
745.155
744.43
743.649
742.816
741.932
740.999
740.019
738.994
737.924
736.812
735.66
734.468
733.239
731.973
730.672
729.336
727.968
726.568
725.136
723.674
722.183
720.662
719.114
717.538
715.936
714.307
712.652
710.972
709.268
707.538
705.785
704.008
702.208
700.384
698.538
696.669
694.777
692.864
690.928
688.971
686.992
684.991
682.969
680.926
678.862
676.776
674.67
672.543
670.394
668.225
666.035
663.824
661.592
659.34
657.067
654.773
652.458
650.122
647.765
645.388
642.99
640.57
638.13
635.668
633.185
630.681
628.156
625.609
623.041
620.451
617.839
615.206
612.551
609.874
607.174
604.453
601.709
598.943
596.154
593.342
590.508
587.651
584.77
581.866
578.939
575.989
573.014
570.016
566.994
563.948
560.877
557.781
554.662
551.517
548.347
545.152
541.932
538.686
535.414
532.117
528.793
525.443
522.067
518.664
515.234
511.776
508.292
504.78
501.24
497.673
494.077
490.453
486.801
483.12
479.409
475.67
471.901
468.102
464.274
460.415
456.526
452.607
448.656
444.675
440.662
436.618
432.542
428.434
424.293
420.12
415.915
411.676
407.404
403.098
398.759
394.385
389.977
385.535
381.057
376.545
371.997
367.414
362.794
358.139
353.447
348.719
343.953
339.151
334.311
329.434
324.518
319.563
314.568
309.531
304.449
299.315
294.126
288.868
283.533
748.356
748.408
748.508
748.635
748.784
748.951
749.113
749.265
749.391
749.483
749.529
749.523
749.457
749.327
749.13
748.864
748.528
748.122
747.648
747.107
746.502
745.833
745.104
744.316
743.473
742.577
741.63
740.634
739.591
738.504
737.373
736.202
734.992
733.743
732.459
731.139
729.785
728.398
726.98
725.531
724.052
722.544
721.008
719.444
717.853
716.236
714.593
712.925
711.232
709.515
707.774
706.009
704.221
702.41
700.576
698.72
696.841
694.941
693.019
691.075
689.11
687.123
685.116
683.087
681.037
678.967
676.875
674.763
672.63
670.477
668.303
666.108
663.893
661.657
659.401
657.124
654.826
652.508
650.169
647.81
645.429
643.028
640.606
638.163
635.699
633.214
630.708
628.181
625.633
623.063
620.471
617.858
615.224
612.567
609.889
607.188
604.466
601.721
598.954
596.164
593.351
590.516
587.658
584.777
581.873
578.945
575.994
573.019
570.02
566.998
563.951
560.88
557.784
554.664
551.519
548.349
545.153
541.933
538.687
535.415
532.117
528.793
525.443
522.067
518.663
515.233
511.776
508.291
504.779
501.24
497.672
494.076
490.452
486.8
483.118
479.408
475.668
471.899
468.101
464.272
460.414
456.525
452.605
448.655
444.673
440.66
436.616
432.54
428.432
424.291
420.118
415.912
411.673
407.401
403.095
398.756
394.382
389.974
385.531
381.054
376.541
371.992
367.408
362.788
358.132
353.439
348.709
343.942
339.138
334.295
329.414
324.493
319.532
314.53
309.483
304.388
299.241
294.036
288.76
283.408
747.623
747.696
747.838
748.035
748.275
748.56
748.845
749.135
749.393
749.613
749.777
749.877
749.903
749.851
749.719
749.504
749.208
748.831
748.376
747.847
747.245
746.576
745.84
745.043
744.187
743.276
742.311
741.297
740.234
739.127
737.976
736.783
735.552
734.282
732.977
731.636
730.262
728.856
727.418
725.95
724.453
722.928
721.374
719.794
718.187
716.554
714.897
713.214
711.507
709.777
708.023
706.246
704.446
702.623
700.779
698.912
697.024
695.114
693.183
691.23
689.257
687.262
685.247
683.211
681.155
679.077
676.98
674.862
672.723
670.565
668.386
666.186
663.966
661.726
659.465
657.185
654.883
652.562
650.219
647.857
645.473
643.069
640.645
638.199
635.733
633.246
630.738
628.208
625.658
623.086
620.493
617.879
615.242
612.585
609.905
607.203
604.479
601.734
598.965
596.175
593.361
590.525
587.667
584.785
581.88
578.951
576
573.024
570.025
567.002
563.955
560.883
557.787
554.666
551.521
548.351
545.155
541.934
538.688
535.416
532.118
528.794
525.444
522.067
518.663
515.233
511.776
508.291
504.779
501.239
497.671
494.075
490.451
486.799
483.117
479.407
475.667
471.898
468.099
464.271
460.412
456.523
452.603
448.653
444.671
440.658
436.614
432.538
428.43
424.289
420.116
415.91
411.671
407.399
403.093
398.753
394.379
389.971
385.528
381.05
376.537
371.988
367.403
362.783
358.126
353.432
348.7
343.932
339.125
334.279
329.394
324.469
319.502
314.492
309.436
304.331
299.171
293.951
288.661
283.293
746.453
746.544
746.733
747.014
747.379
747.842
748.309
748.804
749.254
749.659
749.987
750.229
750.376
750.424
750.37
750.216
749.964
749.618
749.183
748.663
748.063
747.389
746.644
745.833
744.96
744.03
743.045
742.008
740.923
739.792
738.617
737.402
736.146
734.854
733.525
732.163
730.767
729.339
727.881
726.393
724.876
723.331
721.76
720.161
718.538
716.889
715.215
713.517
711.796
710.051
708.284
706.494
704.681
702.847
700.991
699.114
697.215
695.295
693.354
691.393
689.411
687.408
685.385
683.341
681.278
679.194
677.09
674.965
672.821
670.657
668.472
666.268
664.043
661.798
659.533
657.248
654.943
652.618
650.272
647.906
645.52
643.113
640.685
638.237
635.768
633.279
630.768
628.237
625.685
623.111
620.516
617.9
615.262
612.603
609.922
607.219
604.494
601.747
598.978
596.186
593.372
590.535
587.676
584.793
581.887
578.958
576.006
573.03
570.03
567.006
563.959
560.887
557.79
554.669
551.524
548.353
545.157
541.936
538.689
535.417
532.119
528.794
525.444
522.067
518.663
515.233
511.775
508.291
504.778
501.238
497.671
494.075
490.45
486.798
483.116
479.406
475.666
471.897
468.098
464.269
460.411
456.522
452.602
448.651
444.67
440.657
436.612
432.536
428.428
424.287
420.114
415.908
411.669
407.396
403.09
398.75
394.376
389.968
385.525
381.046
376.533
371.984
367.399
362.777
358.119
353.424
348.692
343.921
339.112
334.264
329.375
324.446
319.473
314.456
309.392
304.277
299.105
293.872
288.569
283.187
744.385
744.524
744.786
745.196
745.77
746.532
747.296
748.124
748.869
749.55
750.115
750.556
750.866
751.042
751.086
751.004
750.803
750.49
750.073
749.56
748.958
748.274
747.515
746.686
745.792
744.838
743.829
742.766
741.655
740.498
739.297
738.055
736.774
735.456
734.103
732.715
731.296
729.845
728.365
726.855
725.318
723.753
722.162
720.546
718.904
717.238
715.547
713.834
712.097
710.338
708.556
706.753
704.927
703.081
701.213
699.324
697.415
695.484
693.534
691.563
689.571
687.56
685.529
683.477
681.406
679.315
677.204
675.074
672.923
670.753
668.563
666.353
664.123
661.874
659.604
657.315
655.006
652.677
650.327
647.958
645.568
643.158
640.728
638.277
635.806
633.314
630.801
628.267
625.713
623.137
620.541
617.923
615.284
612.623
609.94
607.236
604.51
601.762
598.991
596.199
593.383
590.546
587.685
584.802
581.895
578.966
576.012
573.036
570.035
567.011
563.963
560.891
557.794
554.673
551.526
548.355
545.159
541.938
538.691
535.418
532.12
528.795
525.445
522.068
518.664
515.233
511.775
508.291
504.778
501.238
497.67
494.074
490.45
486.797
483.115
479.405
475.665
471.896
468.097
464.268
460.409
456.52
452.6
448.65
444.668
440.655
436.611
432.535
428.426
424.285
420.112
415.906
411.667
407.394
403.088
398.748
394.374
389.965
385.522
381.043
376.529
371.98
367.394
362.772
358.113
353.417
348.683
343.911
339.1
334.249
329.357
324.423
319.446
314.422
309.35
304.226
299.044
293.8
288.484
283.091
741.028
741.124
741.376
741.781
742.636
743.887
745.173
746.597
747.847
748.989
749.942
750.701
751.261
751.627
751.81
751.826
751.689
751.416
751.02
750.514
749.908
749.213
748.437
747.587
746.669
745.689
744.651
743.561
742.421
741.235
740.005
738.735
737.427
736.082
734.702
733.29
731.845
730.371
728.867
727.335
725.776
724.19
722.579
720.943
719.283
717.599
715.891
714.161
712.409
710.634
708.838
707.02
705.182
703.322
701.442
699.542
697.621
695.68
693.719
691.738
689.738
687.718
685.678
683.618
681.539
679.441
677.323
675.186
673.029
670.852
668.657
666.442
664.207
661.952
659.678
657.384
655.071
652.738
650.385
648.012
645.619
643.206
640.772
638.319
635.844
633.35
630.835
628.299
625.742
623.165