/*--------------------------------*- C++ -*----------------------------------*\
| =========                 |                                                 |
| \\      /  F ield         | OpenFOAM: The Open Source CFD Toolbox           |
|  \\    /   O peration     | Version:  2.1.x                                 |
|   \\  /    A nd           | Web:      www.OpenFOAM.org                      |
|    \\/     M anipulation  |                                                 |
\*---------------------------------------------------------------------------*/
FoamFile
{
    version     2.0;
    format      ascii;
    class       volScalarField;
    location    "0.001";
    object      pPrime2Mean;
}
// * * * * * * * * * * * * * * * * * * * * * * * * * * * * * * * * * * * * * //

dimensions      [0 4 -4 0 0 0 0];

internalField   nonuniform List<scalar> 
12225
(
3.99586e+08
3.93216e+08
3.8664e+08
3.80298e+08
3.74204e+08
3.68343e+08
3.62699e+08
3.57255e+08
3.51993e+08
3.46893e+08
3.41935e+08
3.37093e+08
3.32343e+08
3.27647e+08
3.22955e+08
3.18195e+08
3.13228e+08
3.07737e+08
3.99593e+08
3.93219e+08
3.86643e+08
3.80301e+08
3.74207e+08
3.68347e+08
3.62704e+08
3.57261e+08
3.52e+08
3.46901e+08
3.41946e+08
3.37107e+08
3.32362e+08
3.27673e+08
3.22995e+08
3.18257e+08
3.13351e+08
3.07997e+08
3.99601e+08
3.93226e+08
3.86649e+08
3.80308e+08
3.74214e+08
3.68356e+08
3.62715e+08
3.57274e+08
3.52016e+08
3.46921e+08
3.41971e+08
3.3714e+08
3.32405e+08
3.27734e+08
3.23083e+08
3.18397e+08
3.13595e+08
3.08571e+08
3.99616e+08
3.93237e+08
3.86659e+08
3.80319e+08
3.74228e+08
3.68371e+08
3.62733e+08
3.57297e+08
3.52044e+08
3.46955e+08
3.42014e+08
3.37197e+08
3.3248e+08
3.27836e+08
3.2323e+08
3.18623e+08
3.13974e+08
3.09288e+08
3.99634e+08
3.93255e+08
3.86676e+08
3.80337e+08
3.74248e+08
3.68395e+08
3.62762e+08
3.57331e+08
3.52086e+08
3.47008e+08
3.4208e+08
3.37282e+08
3.32592e+08
3.27988e+08
3.23445e+08
3.1894e+08
3.14469e+08
3.10087e+08
3.99667e+08
3.9328e+08
3.867e+08
3.80363e+08
3.74278e+08
3.6843e+08
3.62803e+08
3.57381e+08
3.52146e+08
3.47083e+08
3.42174e+08
3.37402e+08
3.32749e+08
3.28197e+08
3.23732e+08
3.19347e+08
3.15058e+08
3.10936e+08
3.99718e+08
3.93316e+08
3.86734e+08
3.80399e+08
3.74319e+08
3.68478e+08
3.6286e+08
3.57449e+08
3.52229e+08
3.47185e+08
3.42302e+08
3.37564e+08
3.32957e+08
3.28469e+08
3.24094e+08
3.19837e+08
3.15725e+08
3.11819e+08
3.99764e+08
3.93354e+08
3.86772e+08
3.80441e+08
3.74365e+08
3.68532e+08
3.62924e+08
3.57526e+08
3.52322e+08
3.47299e+08
3.42443e+08
3.3774e+08
3.3318e+08
3.28755e+08
3.24464e+08
3.20317e+08
3.16342e+08
3.12588e+08
3.9981e+08
3.93393e+08
3.86812e+08
3.80485e+08
3.74415e+08
3.6859e+08
3.62992e+08
3.57608e+08
3.52421e+08
3.4742e+08
3.42591e+08
3.37924e+08
3.3341e+08
3.29045e+08
3.24831e+08
3.2078e+08
3.16917e+08
3.13281e+08
3.99853e+08
3.93443e+08
3.86865e+08
3.80543e+08
3.74481e+08
3.68666e+08
3.63082e+08
3.57714e+08
3.52549e+08
3.47575e+08
3.42781e+08
3.38157e+08
3.33698e+08
3.29401e+08
3.25271e+08
3.2132e+08
3.17568e+08
3.14043e+08
3.99908e+08
3.93506e+08
3.86934e+08
3.80619e+08
3.74568e+08
3.68766e+08
3.63199e+08
3.57853e+08
3.52715e+08
3.47774e+08
3.43021e+08
3.38448e+08
3.34052e+08
3.29831e+08
3.2579e+08
3.2194e+08
3.18296e+08
3.14873e+08
3.9996e+08
3.93586e+08
3.87024e+08
3.80719e+08
3.74681e+08
3.68896e+08
3.6335e+08
3.58031e+08
3.52926e+08
3.48025e+08
3.43321e+08
3.38808e+08
3.34481e+08
3.30342e+08
3.26393e+08
3.22643e+08
3.191e+08
3.15773e+08
4.00067e+08
3.93697e+08
3.87142e+08
3.80849e+08
3.74826e+08
3.69062e+08
3.63543e+08
3.58256e+08
3.53191e+08
3.48338e+08
3.4369e+08
3.39242e+08
3.34991e+08
3.30937e+08
3.27081e+08
3.23426e+08
3.19978e+08
3.16737e+08
4.00236e+08
3.93846e+08
3.87296e+08
3.81016e+08
3.75012e+08
3.69274e+08
3.63787e+08
3.58539e+08
3.53519e+08
3.4872e+08
3.44135e+08
3.39758e+08
3.35586e+08
3.31617e+08
3.27851e+08
3.24287e+08
3.20925e+08
3.17762e+08
4.00416e+08
3.94032e+08
3.8749e+08
3.81226e+08
3.75246e+08
3.69537e+08
3.64087e+08
3.58884e+08
3.53916e+08
3.49177e+08
3.44659e+08
3.40356e+08
3.36263e+08
3.32378e+08
3.28696e+08
3.25216e+08
3.21932e+08
3.18839e+08
4.00655e+08
3.94263e+08
3.8773e+08
3.81485e+08
3.75532e+08
3.69858e+08
3.6445e+08
3.59295e+08
3.54384e+08
3.49708e+08
3.45258e+08
3.41029e+08
3.37014e+08
3.33208e+08
3.29605e+08
3.26199e+08
3.22984e+08
3.19954e+08
4.00915e+08
3.94534e+08
3.88017e+08
3.81794e+08
3.75872e+08
3.70236e+08
3.64873e+08
3.5977e+08
3.54917e+08
3.50304e+08
3.45923e+08
3.41765e+08
3.37822e+08
3.34088e+08
3.30555e+08
3.27215e+08
3.24061e+08
3.21085e+08
4.0119e+08
3.94822e+08
3.88322e+08
3.82123e+08
3.76231e+08
3.70632e+08
3.65311e+08
3.60257e+08
3.55457e+08
3.509e+08
3.46578e+08
3.42481e+08
3.38599e+08
3.34924e+08
3.31448e+08
3.28161e+08
3.25054e+08
3.2212e+08
4.01445e+08
3.95084e+08
3.88597e+08
3.82418e+08
3.7655e+08
3.70981e+08
3.65695e+08
3.60678e+08
3.55919e+08
3.51405e+08
3.47127e+08
3.43075e+08
3.39237e+08
3.35605e+08
3.32168e+08
3.28918e+08
3.25846e+08
3.22941e+08
4.01652e+08
3.953e+08
3.88824e+08
3.82658e+08
3.76809e+08
3.71261e+08
3.66e+08
3.61011e+08
3.56281e+08
3.51799e+08
3.47552e+08
3.43531e+08
3.39724e+08
3.36121e+08
3.32712e+08
3.29487e+08
3.26437e+08
3.23552e+08
4.01831e+08
3.95478e+08
3.89006e+08
3.82849e+08
3.77013e+08
3.71481e+08
3.66238e+08
3.61269e+08
3.56561e+08
3.521e+08
3.47876e+08
3.43877e+08
3.40092e+08
3.36509e+08
3.33119e+08
3.29912e+08
3.26878e+08
3.24007e+08
4.01975e+08
3.95619e+08
3.89149e+08
3.82998e+08
3.77171e+08
3.7165e+08
3.66421e+08
3.61466e+08
3.56773e+08
3.52329e+08
3.48121e+08
3.44138e+08
3.40367e+08
3.36799e+08
3.33423e+08
3.30228e+08
3.27205e+08
3.24344e+08
4.02089e+08
3.95729e+08
3.89259e+08
3.83112e+08
3.77291e+08
3.71778e+08
3.66558e+08
3.61614e+08
3.56932e+08
3.52499e+08
3.48303e+08
3.44331e+08
3.40572e+08
3.37014e+08
3.33647e+08
3.30461e+08
3.27446e+08
3.24591e+08
4.02181e+08
3.95812e+08
3.89341e+08
3.83197e+08
3.7738e+08
3.71873e+08
3.6666e+08
3.61723e+08
3.57049e+08
3.52624e+08
3.48436e+08
3.44472e+08
3.40721e+08
3.3717e+08
3.3381e+08
3.3063e+08
3.2762e+08
3.24771e+08
4.02244e+08
3.95871e+08
3.894e+08
3.83258e+08
3.77445e+08
3.71942e+08
3.66733e+08
3.61802e+08
3.57133e+08
3.52714e+08
3.48532e+08
3.44573e+08
3.40827e+08
3.37282e+08
3.33927e+08
3.30751e+08
3.27745e+08
3.24899e+08
4.02282e+08
3.95911e+08
3.89442e+08
3.83302e+08
3.7749e+08
3.7199e+08
3.66785e+08
3.61857e+08
3.57192e+08
3.52777e+08
3.48598e+08
3.44644e+08
3.40901e+08
3.3736e+08
3.34008e+08
3.30835e+08
3.27832e+08
3.24988e+08
4.02295e+08
3.95936e+08
3.8947e+08
3.83331e+08
3.77521e+08
3.72023e+08
3.66819e+08
3.61894e+08
3.57232e+08
3.52819e+08
3.48643e+08
3.44691e+08
3.40951e+08
3.37412e+08
3.34062e+08
3.30891e+08
3.27889e+08
3.25047e+08
4.02311e+08
3.95952e+08
3.89487e+08
3.8335e+08
3.77541e+08
3.72043e+08
3.66841e+08
3.61917e+08
3.57257e+08
3.52846e+08
3.48671e+08
3.44721e+08
3.40982e+08
3.37444e+08
3.34096e+08
3.30926e+08
3.27926e+08
3.25085e+08
4.02315e+08
3.9596e+08
3.89498e+08
3.83361e+08
3.77552e+08
3.72055e+08
3.66853e+08
3.6193e+08
3.57271e+08
3.52861e+08
3.48687e+08
3.44738e+08
3.41e+08
3.37463e+08
3.34115e+08
3.30946e+08
3.27946e+08
3.25106e+08
4.02313e+08
3.95963e+08
3.89502e+08
3.83365e+08
3.77557e+08
3.7206e+08
3.66858e+08
3.61936e+08
3.57276e+08
3.52867e+08
3.48694e+08
3.44745e+08
3.41007e+08
3.3747e+08
3.34123e+08
3.30954e+08
3.27955e+08
3.25115e+08
2.59918e+08
2.59897e+08
2.59856e+08
2.59792e+08
2.59707e+08
2.596e+08
2.59469e+08
2.59316e+08
2.5914e+08
2.5894e+08
2.58715e+08
2.58467e+08
2.58195e+08
2.57898e+08
2.57577e+08
2.57231e+08
2.5686e+08
2.56465e+08
2.56045e+08
2.556e+08
2.55131e+08
2.54637e+08
2.54119e+08
2.53576e+08
2.53009e+08
2.52418e+08
2.51804e+08
2.51166e+08
2.50505e+08
2.4982e+08
2.49113e+08
2.48383e+08
2.47631e+08
2.46858e+08
2.46062e+08
2.45245e+08
2.44408e+08
2.43549e+08
2.42671e+08
2.41772e+08
2.40854e+08
2.39916e+08
2.3896e+08
2.37985e+08
2.36991e+08
2.3598e+08
2.34951e+08
2.33905e+08
2.32842e+08
2.31763e+08
2.30667e+08
2.29555e+08
2.28427e+08
2.27285e+08
2.26127e+08
2.24954e+08
2.23767e+08
2.22566e+08
2.21351e+08
2.20123e+08
2.18881e+08
2.17626e+08
2.16359e+08
2.15079e+08
2.13787e+08
2.12483e+08
2.11167e+08
2.0984e+08
2.08501e+08
2.07152e+08
2.05791e+08
2.04421e+08
2.03039e+08
2.01648e+08
2.00247e+08
1.98836e+08
1.97415e+08
1.95985e+08
1.94547e+08
1.93099e+08
1.91642e+08
1.90177e+08
1.88703e+08
1.87222e+08
1.85732e+08
1.84234e+08
1.82729e+08
1.81216e+08
1.79696e+08
1.78168e+08
1.76634e+08
1.75092e+08
1.73544e+08
1.71989e+08
1.70428e+08
1.68861e+08
1.67287e+08
1.65708e+08
1.64122e+08
1.62531e+08
1.60935e+08
1.59333e+08
1.57726e+08
1.56113e+08
1.54496e+08
1.52874e+08
1.51248e+08
1.49616e+08
1.47981e+08
1.46341e+08
1.44698e+08
1.4305e+08
1.41399e+08
1.39744e+08
1.38086e+08
1.36424e+08
1.34759e+08
1.33092e+08
1.31421e+08
1.29748e+08
1.28073e+08
1.26395e+08
1.24716e+08
1.23034e+08
1.21351e+08
1.19666e+08
1.1798e+08
1.16292e+08
1.14604e+08
1.12915e+08
1.11225e+08
1.09535e+08
1.07845e+08
1.06155e+08
1.04465e+08
1.02776e+08
1.01087e+08
9.93992e+07
9.77127e+07
9.60277e+07
9.43443e+07
9.26628e+07
9.09835e+07
8.93066e+07
8.76325e+07
8.59613e+07
8.42934e+07
8.2629e+07
8.09685e+07
7.93121e+07
7.76601e+07
7.60129e+07
7.43707e+07
7.27339e+07
7.11028e+07
6.94777e+07
6.78591e+07
6.62471e+07
6.46423e+07
6.3045e+07
6.14555e+07
5.98743e+07
5.83018e+07
5.67384e+07
5.51845e+07
5.36406e+07
5.21072e+07
5.05847e+07
4.90738e+07
4.7575e+07
4.60888e+07
4.46162e+07
4.31577e+07
4.17144e+07
4.02874e+07
3.8878e+07
3.74882e+07
3.61208e+07
3.47805e+07
3.34777e+07
2.60013e+08
2.59992e+08
2.5995e+08
2.59886e+08
2.59801e+08
2.59692e+08
2.59561e+08
2.59407e+08
2.5923e+08
2.59028e+08
2.58803e+08
2.58554e+08
2.5828e+08
2.57981e+08
2.57658e+08
2.57311e+08
2.56938e+08
2.56541e+08
2.56119e+08
2.55673e+08
2.55201e+08
2.54706e+08
2.54185e+08
2.53641e+08
2.53072e+08
2.52479e+08
2.51862e+08
2.51222e+08
2.50559e+08
2.49873e+08
2.49164e+08
2.48432e+08
2.47678e+08
2.46902e+08
2.46105e+08
2.45287e+08
2.44447e+08
2.43587e+08
2.42707e+08
2.41807e+08
2.40887e+08
2.39948e+08
2.3899e+08
2.38013e+08
2.37019e+08
2.36006e+08
2.34976e+08
2.33929e+08
2.32865e+08
2.31784e+08
2.30687e+08
2.29574e+08
2.28445e+08
2.27302e+08
2.26143e+08
2.2497e+08
2.23782e+08
2.2258e+08
2.21364e+08
2.20135e+08
2.18893e+08
2.17637e+08
2.16369e+08
2.15089e+08
2.13796e+08
2.12492e+08
2.11175e+08
2.09848e+08
2.08509e+08
2.07159e+08
2.05798e+08
2.04427e+08
2.03045e+08
2.01653e+08
2.00252e+08
1.9884e+08
1.9742e+08
1.9599e+08
1.9455e+08
1.93102e+08
1.91645e+08
1.9018e+08
1.88706e+08
1.87224e+08
1.85734e+08
1.84237e+08
1.82731e+08
1.81218e+08
1.79698e+08
1.7817e+08
1.76635e+08
1.75094e+08
1.73546e+08
1.71991e+08
1.70429e+08
1.68862e+08
1.67288e+08
1.65709e+08
1.64123e+08
1.62532e+08
1.60936e+08
1.59334e+08
1.57726e+08
1.56114e+08
1.54497e+08
1.52875e+08
1.51248e+08
1.49617e+08
1.47981e+08
1.46342e+08
1.44698e+08
1.4305e+08
1.41399e+08
1.39744e+08
1.38086e+08
1.36424e+08
1.3476e+08
1.33092e+08
1.31422e+08
1.29749e+08
1.28073e+08
1.26396e+08
1.24716e+08
1.23034e+08
1.21351e+08
1.19666e+08
1.1798e+08
1.16292e+08
1.14604e+08
1.12915e+08
1.11225e+08
1.09535e+08
1.07845e+08
1.06155e+08
1.04465e+08
1.02776e+08
1.01087e+08
9.93993e+07
9.77128e+07
9.60277e+07
9.43443e+07
9.26628e+07
9.09835e+07
8.93066e+07
8.76325e+07
8.59613e+07
8.42934e+07
8.26291e+07
8.09685e+07
7.93121e+07
7.76601e+07
7.60129e+07
7.43707e+07
7.27339e+07
7.11028e+07
6.94777e+07
6.78591e+07
6.62471e+07
6.46423e+07
6.3045e+07
6.14555e+07
5.98743e+07
5.83018e+07
5.67384e+07
5.51844e+07
5.36405e+07
5.21071e+07
5.05846e+07
4.90736e+07
4.75747e+07
4.60886e+07
4.46158e+07
4.31573e+07
4.17138e+07
4.02866e+07
3.88769e+07
3.74866e+07
3.61183e+07
3.4776e+07
3.34674e+07
2.60203e+08
2.60182e+08
2.60139e+08
2.60075e+08
2.59988e+08
2.59878e+08
2.59745e+08
2.59589e+08
2.5941e+08
2.59206e+08
2.58978e+08
2.58726e+08
2.58449e+08
2.58148e+08
2.57822e+08
2.57471e+08
2.57095e+08
2.56694e+08
2.56268e+08
2.55818e+08
2.55343e+08
2.54843e+08
2.54318e+08
2.5377e+08
2.53197e+08
2.526e+08
2.51979e+08
2.51335e+08
2.50668e+08
2.49978e+08
2.49264e+08
2.48529e+08
2.47771e+08
2.46992e+08
2.46191e+08
2.45369e+08
2.44526e+08
2.43663e+08
2.42779e+08
2.41876e+08
2.40953e+08
2.40011e+08
2.3905e+08
2.38071e+08
2.37073e+08
2.36058e+08
2.35025e+08
2.33976e+08
2.32909e+08
2.31826e+08
2.30727e+08
2.29612e+08
2.28482e+08
2.27336e+08
2.26176e+08
2.25e+08
2.23811e+08
2.22608e+08
2.21391e+08
2.2016e+08
2.18916e+08
2.1766e+08
2.1639e+08
2.15109e+08
2.13815e+08
2.12509e+08
2.11192e+08
2.09863e+08
2.08523e+08
2.07172e+08
2.05811e+08
2.04439e+08
2.03056e+08
2.01664e+08
2.00262e+08
1.9885e+08
1.97429e+08
1.95998e+08
1.94558e+08
1.9311e+08
1.91652e+08
1.90186e+08
1.88712e+08
1.8723e+08
1.8574e+08
1.84241e+08
1.82736e+08
1.81222e+08
1.79701e+08
1.78174e+08
1.76639e+08
1.75097e+08
1.73548e+08
1.71993e+08
1.70432e+08
1.68864e+08
1.6729e+08
1.65711e+08
1.64125e+08
1.62534e+08
1.60937e+08
1.59335e+08
1.57728e+08
1.56115e+08
1.54498e+08
1.52876e+08
1.51249e+08
1.49618e+08
1.47982e+08
1.46342e+08
1.44699e+08
1.43051e+08
1.414e+08
1.39745e+08
1.38086e+08
1.36425e+08
1.3476e+08
1.33092e+08
1.31422e+08
1.29749e+08
1.28074e+08
1.26396e+08
1.24716e+08
1.23035e+08
1.21351e+08
1.19666e+08
1.1798e+08
1.16293e+08
1.14604e+08
1.12915e+08
1.11225e+08
1.09535e+08
1.07845e+08
1.06155e+08
1.04465e+08
1.02776e+08
1.01087e+08
9.93993e+07
9.77128e+07
9.60277e+07
9.43443e+07
9.26628e+07
9.09835e+07
8.93067e+07
8.76325e+07
8.59614e+07
8.42934e+07
8.26291e+07
8.09685e+07
7.93121e+07
7.76601e+07
7.60129e+07
7.43707e+07
7.27339e+07
7.11028e+07
6.94777e+07
6.7859e+07
6.62471e+07
6.46423e+07
6.30449e+07
6.14555e+07
5.98743e+07
5.83017e+07
5.67383e+07
5.51843e+07
5.36404e+07
5.21069e+07
5.05843e+07
4.90733e+07
4.75743e+07
4.60881e+07
4.46152e+07
4.31564e+07
4.17127e+07
4.0285e+07
3.88747e+07
3.74835e+07
3.61135e+07
3.47679e+07
3.3451e+07
2.6049e+08
2.60468e+08
2.60424e+08
2.60358e+08
2.6027e+08
2.60158e+08
2.60023e+08
2.59864e+08
2.59681e+08
2.59474e+08
2.59242e+08
2.58986e+08
2.58705e+08
2.58399e+08
2.58068e+08
2.57711e+08
2.5733e+08
2.56924e+08
2.56492e+08
2.56036e+08
2.55555e+08
2.55049e+08
2.54518e+08
2.53963e+08
2.53384e+08
2.52781e+08
2.52155e+08
2.51504e+08
2.50831e+08
2.50135e+08
2.49416e+08
2.48674e+08
2.47911e+08
2.47126e+08
2.4632e+08
2.45492e+08
2.44644e+08
2.43776e+08
2.42887e+08
2.41979e+08
2.41051e+08
2.40105e+08
2.3914e+08
2.38156e+08
2.37155e+08
2.36136e+08
2.35099e+08
2.34046e+08
2.32976e+08
2.3189e+08
2.30787e+08
2.29669e+08
2.28536e+08
2.27387e+08
2.26224e+08
2.25047e+08
2.23855e+08
2.22649e+08
2.2143e+08
2.20197e+08
2.18951e+08
2.17692e+08
2.16421e+08
2.15138e+08
2.13842e+08
2.12535e+08
2.11216e+08
2.09886e+08
2.08545e+08
2.07193e+08
2.0583e+08
2.04457e+08
2.03073e+08
2.0168e+08
2.00277e+08
1.98864e+08
1.97442e+08
1.9601e+08
1.9457e+08
1.9312e+08
1.91662e+08
1.90196e+08
1.88721e+08
1.87238e+08
1.85747e+08
1.84249e+08
1.82742e+08
1.81228e+08
1.79707e+08
1.78179e+08
1.76644e+08
1.75102e+08
1.73553e+08
1.71998e+08
1.70436e+08
1.68868e+08
1.67294e+08
1.65714e+08
1.64128e+08
1.62536e+08
1.6094e+08
1.59337e+08
1.5773e+08
1.56117e+08
1.545e+08
1.52877e+08
1.51251e+08
1.49619e+08
1.47984e+08
1.46344e+08
1.447e+08
1.43052e+08
1.41401e+08
1.39746e+08
1.38087e+08
1.36425e+08
1.34761e+08
1.33093e+08
1.31423e+08
1.29749e+08
1.28074e+08
1.26396e+08
1.24717e+08
1.23035e+08
1.21351e+08
1.19667e+08
1.1798e+08
1.16293e+08
1.14604e+08
1.12915e+08
1.11226e+08
1.09535e+08
1.07845e+08
1.06155e+08
1.04465e+08
1.02776e+08
1.01087e+08
9.93994e+07
9.77129e+07
9.60278e+07
9.43444e+07
9.26629e+07
9.09836e+07
8.93067e+07
8.76326e+07
8.59614e+07
8.42935e+07
8.26291e+07
8.09686e+07
7.93121e+07
7.76601e+07
7.60129e+07
7.43707e+07
7.27339e+07
7.11028e+07
6.94777e+07
6.7859e+07
6.62471e+07
6.46422e+07
6.30449e+07
6.14554e+07
5.98742e+07
5.83016e+07
5.67381e+07
5.51841e+07
5.36401e+07
5.21066e+07
5.0584e+07
4.90728e+07
4.75737e+07
4.60873e+07
4.46142e+07
4.31551e+07
4.17109e+07
4.02827e+07
3.88716e+07
3.7479e+07
3.61068e+07
3.47572e+07
3.34319e+07
2.60875e+08
2.60852e+08
2.60807e+08
2.60739e+08
2.60648e+08
2.60534e+08
2.60395e+08
2.60233e+08
2.60045e+08
2.59833e+08
2.59596e+08
2.59334e+08
2.59047e+08
2.58735e+08
2.58397e+08
2.58033e+08
2.57645e+08
2.57231e+08
2.56792e+08
2.56327e+08
2.55838e+08
2.55324e+08
2.54785e+08
2.54222e+08
2.53635e+08
2.53023e+08
2.52388e+08
2.5173e+08
2.51048e+08
2.50344e+08
2.49617e+08
2.48868e+08
2.48097e+08
2.47304e+08
2.46491e+08
2.45656e+08
2.44801e+08
2.43926e+08
2.43031e+08
2.42116e+08
2.41182e+08
2.4023e+08
2.39259e+08
2.3827e+08
2.37263e+08
2.36239e+08
2.35197e+08
2.34139e+08
2.33064e+08
2.31974e+08
2.30867e+08
2.29745e+08
2.28608e+08
2.27456e+08
2.26289e+08
2.25108e+08
2.23913e+08
2.22704e+08
2.21481e+08
2.20246e+08
2.18997e+08
2.17736e+08
2.16463e+08
2.15177e+08
2.13879e+08
2.1257e+08
2.11249e+08
2.09917e+08
2.08574e+08
2.0722e+08
2.05856e+08
2.04481e+08
2.03096e+08
2.01701e+08
2.00297e+08
1.98883e+08
1.97459e+08
1.96027e+08
1.94585e+08
1.93135e+08
1.91676e+08
1.90209e+08
1.88733e+08
1.87249e+08
1.85758e+08
1.84258e+08
1.82751e+08
1.81237e+08
1.79715e+08
1.78186e+08
1.76651e+08
1.75108e+08
1.73559e+08
1.72003e+08
1.70441e+08
1.68872e+08
1.67298e+08
1.65718e+08
1.64132e+08
1.6254e+08
1.60943e+08
1.5934e+08
1.57732e+08
1.5612e+08
1.54502e+08
1.5288e+08
1.51253e+08
1.49621e+08
1.47985e+08
1.46345e+08
1.44701e+08
1.43053e+08
1.41402e+08
1.39747e+08
1.38088e+08
1.36426e+08
1.34762e+08
1.33094e+08
1.31423e+08
1.2975e+08
1.28075e+08
1.26397e+08
1.24717e+08
1.23035e+08
1.21352e+08
1.19667e+08
1.17981e+08
1.16293e+08
1.14605e+08
1.12916e+08
1.11226e+08
1.09536e+08
1.07845e+08
1.06155e+08
1.04465e+08
1.02776e+08
1.01087e+08
9.93995e+07
9.7713e+07
9.60279e+07
9.43445e+07
9.2663e+07
9.09837e+07
8.93068e+07
8.76326e+07
8.59614e+07
8.42935e+07
8.26291e+07
8.09686e+07
7.93122e+07
7.76602e+07
7.60129e+07
7.43707e+07
7.27339e+07
7.11028e+07
6.94777e+07
6.7859e+07
6.6247e+07
6.46422e+07
6.30448e+07
6.14553e+07
5.9874e+07
5.83014e+07
5.67379e+07
5.51839e+07
5.36398e+07
5.21062e+07
5.05835e+07
4.90722e+07
4.75729e+07
4.60863e+07
4.46128e+07
4.31534e+07
4.17087e+07
4.02797e+07
3.88675e+07
3.74733e+07
3.60986e+07
3.47446e+07
3.34117e+07
2.61361e+08
2.61337e+08
2.6129e+08
2.6122e+08
2.61126e+08
2.61008e+08
2.60865e+08
2.60697e+08
2.60504e+08
2.60286e+08
2.60042e+08
2.59772e+08
2.59477e+08
2.59157e+08
2.5881e+08
2.58437e+08
2.58039e+08
2.57616e+08
2.57167e+08
2.56692e+08
2.56193e+08
2.55668e+08
2.55119e+08
2.54545e+08
2.53947e+08
2.53325e+08
2.5268e+08
2.52011e+08
2.51319e+08
2.50605e+08
2.49868e+08
2.49109e+08
2.48328e+08
2.47526e+08
2.46703e+08
2.4586e+08
2.44996e+08
2.44112e+08
2.43209e+08
2.42287e+08
2.41345e+08
2.40385e+08
2.39407e+08
2.38411e+08
2.37397e+08
2.36367e+08
2.35319e+08
2.34255e+08
2.33174e+08
2.32078e+08
2.30966e+08
2.29839e+08
2.28697e+08
2.2754e+08
2.26369e+08
2.25184e+08
2.23984e+08
2.22772e+08
2.21546e+08
2.20307e+08
2.19055e+08
2.1779e+08
2.16514e+08
2.15225e+08
2.13925e+08
2.12613e+08
2.11289e+08
2.09955e+08
2.0861e+08
2.07254e+08
2.05887e+08
2.04511e+08
2.03124e+08
2.01728e+08
2.00321e+08
1.98906e+08
1.97481e+08
1.96047e+08
1.94604e+08
1.93153e+08
1.91693e+08
1.90224e+08
1.88748e+08
1.87263e+08
1.8577e+08
1.8427e+08
1.82762e+08
1.81247e+08
1.79725e+08
1.78195e+08
1.76659e+08
1.75116e+08
1.73566e+08
1.7201e+08
1.70447e+08
1.68878e+08
1.67303e+08
1.65723e+08
1.64136e+08
1.62544e+08
1.60947e+08
1.59344e+08
1.57736e+08
1.56123e+08
1.54505e+08
1.52882e+08
1.51255e+08
1.49623e+08
1.47987e+08
1.46347e+08
1.44703e+08
1.43055e+08
1.41403e+08
1.39748e+08
1.38089e+08
1.36427e+08
1.34763e+08
1.33095e+08
1.31424e+08
1.29751e+08
1.28075e+08
1.26398e+08
1.24718e+08
1.23036e+08
1.21352e+08
1.19667e+08
1.17981e+08
1.16294e+08
1.14605e+08
1.12916e+08
1.11226e+08
1.09536e+08
1.07846e+08
1.06155e+08
1.04466e+08
1.02776e+08
1.01087e+08
9.93997e+07
9.77131e+07
9.6028e+07
9.43446e+07
9.26631e+07
9.09837e+07
8.93069e+07
8.76327e+07
8.59615e+07
8.42936e+07
8.26292e+07
8.09686e+07
7.93122e+07
7.76602e+07
7.60129e+07
7.43707e+07
7.27339e+07
7.11027e+07
6.94776e+07
6.78589e+07
6.6247e+07
6.46421e+07
6.30447e+07
6.14552e+07
5.98739e+07
5.83012e+07
5.67377e+07
5.51836e+07
5.36394e+07
5.21057e+07
5.05829e+07
4.90714e+07
4.7572e+07
4.6085e+07
4.46113e+07
4.31513e+07
4.1706e+07
4.02762e+07
3.88628e+07
3.74668e+07
3.60892e+07
3.4731e+07
3.33914e+07
2.61951e+08
2.61926e+08
2.61877e+08
2.61803e+08
2.61705e+08
2.61582e+08
2.61434e+08
2.6126e+08
2.6106e+08
2.60833e+08
2.60581e+08
2.60302e+08
2.59998e+08
2.59666e+08
2.59309e+08
2.58925e+08
2.58515e+08
2.5808e+08
2.57618e+08
2.57131e+08
2.56619e+08
2.56082e+08
2.55519e+08
2.54933e+08
2.54322e+08
2.53687e+08
2.53029e+08
2.52348e+08
2.51643e+08
2.50917e+08
2.50168e+08
2.49397e+08
2.48605e+08
2.47792e+08
2.46958e+08
2.46103e+08
2.45229e+08
2.44335e+08
2.43422e+08
2.4249e+08
2.41539e+08
2.4057e+08
2.39583e+08
2.38579e+08
2.37557e+08
2.36519e+08
2.35464e+08
2.34393e+08
2.33305e+08
2.32202e+08
2.31084e+08
2.29951e+08
2.28803e+08
2.27641e+08
2.26464e+08
2.25274e+08
2.2407e+08
2.22853e+08
2.21622e+08
2.20379e+08
2.19123e+08
2.17855e+08
2.16575e+08
2.15283e+08
2.13979e+08
2.12664e+08
2.11337e+08
2.1e+08
2.08652e+08
2.07294e+08
2.05925e+08
2.04546e+08
2.03157e+08
2.01759e+08
2.00351e+08
1.98933e+08
1.97507e+08
1.96071e+08
1.94627e+08
1.93174e+08
1.91712e+08
1.90243e+08
1.88765e+08
1.87279e+08
1.85785e+08
1.84284e+08
1.82776e+08
1.81259e+08
1.79736e+08
1.78206e+08
1.76669e+08
1.75125e+08
1.73575e+08
1.72018e+08
1.70454e+08
1.68885e+08
1.6731e+08
1.65729e+08
1.64142e+08
1.62549e+08
1.60951e+08
1.59348e+08
1.5774e+08
1.56127e+08
1.54508e+08
1.52885e+08
1.51258e+08
1.49626e+08
1.4799e+08
1.46349e+08
1.44705e+08
1.43057e+08
1.41405e+08
1.3975e+08
1.38091e+08
1.36429e+08
1.34764e+08
1.33096e+08
1.31425e+08
1.29752e+08
1.28076e+08
1.26398e+08
1.24718e+08
1.23037e+08
1.21353e+08
1.19668e+08
1.17982e+08
1.16294e+08
1.14605e+08
1.12916e+08
1.11226e+08
1.09536e+08
1.07846e+08
1.06156e+08
1.04466e+08
1.02776e+08
1.01088e+08
9.93998e+07
9.77133e+07
9.60281e+07
9.43447e+07
9.26632e+07
9.09838e+07
8.93069e+07
8.76328e+07
8.59616e+07
8.42936e+07
8.26292e+07
8.09687e+07
7.93122e+07
7.76602e+07
7.60129e+07
7.43707e+07
7.27339e+07
7.11027e+07
6.94776e+07
6.78589e+07
6.62469e+07
6.4642e+07
6.30446e+07
6.1455e+07
5.98737e+07
5.8301e+07
5.67374e+07
5.51832e+07
5.3639e+07
5.21051e+07
5.05822e+07
4.90705e+07
4.75708e+07
4.60836e+07
4.46094e+07
4.3149e+07
4.1703e+07
4.02722e+07
3.88574e+07
3.74594e+07
3.60791e+07
3.47167e+07
3.33713e+07
2.62649e+08
2.62622e+08
2.6257e+08
2.62493e+08
2.6239e+08
2.62261e+08
2.62106e+08
2.61924e+08
2.61715e+08
2.61479e+08
2.61216e+08
2.60927e+08
2.6061e+08
2.60266e+08
2.59895e+08
2.59498e+08
2.59074e+08
2.58623e+08
2.58147e+08
2.57645e+08
2.57117e+08
2.56565e+08
2.55987e+08
2.55385e+08
2.54759e+08
2.54109e+08
2.53436e+08
2.52739e+08
2.5202e+08
2.51279e+08
2.50516e+08
2.49731e+08
2.48926e+08
2.48099e+08
2.47252e+08
2.46385e+08
2.45499e+08
2.44593e+08
2.43668e+08
2.42725e+08
2.41763e+08
2.40784e+08
2.39787e+08
2.38773e+08
2.37742e+08
2.36695e+08
2.35631e+08
2.34552e+08
2.33457e+08
2.32346e+08
2.31221e+08
2.3008e+08
2.28926e+08
2.27757e+08
2.26574e+08
2.25378e+08
2.24169e+08
2.22946e+08
2.2171e+08
2.20462e+08
2.19202e+08
2.17929e+08
2.16645e+08
2.15349e+08
2.14041e+08
2.12723e+08
2.11393e+08
2.10053e+08
2.08702e+08
2.0734e+08
2.05969e+08
2.04587e+08
2.03196e+08
2.01795e+08
2.00385e+08
1.98965e+08
1.97537e+08
1.96099e+08
1.94653e+08
1.93198e+08
1.91735e+08
1.90264e+08
1.88785e+08
1.87298e+08
1.85803e+08
1.84301e+08
1.82791e+08
1.81274e+08
1.79749e+08
1.78218e+08
1.7668e+08
1.75136e+08
1.73584e+08
1.72027e+08
1.70463e+08
1.68893e+08
1.67317e+08
1.65735e+08
1.64148e+08
1.62555e+08
1.60957e+08
1.59353e+08
1.57745e+08
1.56131e+08
1.54512e+08
1.52889e+08
1.51261e+08
1.49629e+08
1.47993e+08
1.46352e+08
1.44707e+08
1.43059e+08
1.41407e+08
1.39751e+08
1.38093e+08
1.3643e+08
1.34765e+08
1.33097e+08
1.31426e+08
1.29753e+08
1.28077e+08
1.26399e+08
1.24719e+08
1.23037e+08
1.21354e+08
1.19669e+08
1.17982e+08
1.16295e+08
1.14606e+08
1.12917e+08
1.11227e+08
1.09537e+08
1.07846e+08
1.06156e+08
1.04466e+08
1.02777e+08
1.01088e+08
9.94e+07
9.77134e+07
9.60283e+07
9.43448e+07
9.26633e+07
9.0984e+07
8.93071e+07
8.76329e+07
8.59616e+07
8.42937e+07
8.26293e+07
8.09687e+07
7.93123e+07
7.76602e+07
7.6013e+07
7.43707e+07
7.27339e+07
7.11027e+07
6.94776e+07
6.78588e+07
6.62468e+07
6.46419e+07
6.30445e+07
6.14549e+07
5.98735e+07
5.83008e+07
5.67371e+07
5.51828e+07
5.36385e+07
5.21045e+07
5.05814e+07
4.90695e+07
4.75696e+07
4.6082e+07
4.46074e+07
4.31463e+07
4.16995e+07
4.02677e+07
3.88515e+07
3.74516e+07
3.60685e+07
3.47022e+07
3.33518e+07
2.6346e+08
2.63431e+08
2.63376e+08
2.63294e+08
2.63186e+08
2.63049e+08
2.62886e+08
2.62694e+08
2.62474e+08
2.62227e+08
2.61951e+08
2.61648e+08
2.61316e+08
2.60957e+08
2.6057e+08
2.60156e+08
2.59716e+08
2.59248e+08
2.58754e+08
2.58234e+08
2.57689e+08
2.57118e+08
2.56522e+08
2.55902e+08
2.55258e+08
2.5459e+08
2.53899e+08
2.53186e+08
2.52449e+08
2.51691e+08
2.50912e+08
2.50111e+08
2.4929e+08
2.48448e+08
2.47586e+08
2.46705e+08
2.45804e+08
2.44885e+08
2.43947e+08
2.42991e+08
2.42017e+08
2.41026e+08
2.40018e+08
2.38993e+08
2.37952e+08
2.36894e+08
2.35821e+08
2.34732e+08
2.33627e+08
2.32508e+08
2.31375e+08
2.30227e+08
2.29064e+08
2.27888e+08
2.26699e+08
2.25496e+08
2.2428e+08
2.23051e+08
2.2181e+08
2.20557e+08
2.19291e+08
2.18013e+08
2.16724e+08
2.15424e+08
2.14112e+08
2.12789e+08
2.11456e+08
2.10112e+08
2.08757e+08
2.07393e+08
2.06018e+08
2.04633e+08
2.03239e+08
2.01836e+08
2.00423e+08
1.99001e+08
1.9757e+08
1.96131e+08
1.94683e+08
1.93226e+08
1.91761e+08
1.90288e+08
1.88808e+08
1.87319e+08
1.85823e+08
1.84319e+08
1.82808e+08
1.8129e+08
1.79764e+08
1.78232e+08
1.76693e+08
1.75148e+08
1.73596e+08
1.72037e+08
1.70473e+08
1.68902e+08
1.67326e+08
1.65743e+08
1.64155e+08
1.62562e+08
1.60963e+08
1.59359e+08
1.5775e+08
1.56136e+08
1.54517e+08
1.52893e+08
1.51265e+08
1.49633e+08
1.47996e+08
1.46355e+08
1.4471e+08
1.43062e+08
1.41409e+08
1.39754e+08
1.38095e+08
1.36432e+08
1.34767e+08
1.33099e+08
1.31428e+08
1.29754e+08
1.28078e+08
1.264e+08
1.2472e+08
1.23038e+08
1.21354e+08
1.19669e+08
1.17983e+08
1.16295e+08
1.14606e+08
1.12917e+08
1.11227e+08
1.09537e+08
1.07847e+08
1.06156e+08
1.04466e+08
1.02777e+08
1.01088e+08
9.94002e+07
9.77136e+07
9.60285e+07
9.4345e+07
9.26635e+07
9.09841e+07
8.93072e+07
8.7633e+07
8.59617e+07
8.42938e+07
8.26293e+07
8.09688e+07
7.93123e+07
7.76603e+07
7.6013e+07
7.43707e+07
7.27339e+07
7.11027e+07
6.94775e+07
6.78588e+07
6.62468e+07
6.46418e+07
6.30444e+07
6.14547e+07
5.98733e+07
5.83005e+07
5.67367e+07
5.51824e+07
5.36379e+07
5.21038e+07
5.05805e+07
4.90684e+07
4.75682e+07
4.60802e+07
4.46051e+07
4.31435e+07
4.16959e+07
4.02629e+07
3.88452e+07
3.74433e+07
3.60576e+07
3.46878e+07
3.3333e+07
2.64391e+08
2.64359e+08
2.643e+08
2.64213e+08
2.64097e+08
2.63952e+08
2.63778e+08
2.63574e+08
2.63342e+08
2.6308e+08
2.62789e+08
2.62469e+08
2.6212e+08
2.61743e+08
2.61337e+08
2.60903e+08
2.60443e+08
2.59954e+08
2.5944e+08
2.58899e+08
2.58332e+08
2.5774e+08
2.57124e+08
2.56483e+08
2.55818e+08
2.5513e+08
2.54419e+08
2.53685e+08
2.5293e+08
2.52153e+08
2.51354e+08
2.50535e+08
2.49696e+08
2.48837e+08
2.47959e+08
2.47061e+08
2.46145e+08
2.4521e+08
2.44258e+08
2.43287e+08
2.423e+08
2.41296e+08
2.40275e+08
2.39237e+08
2.38184e+08
2.37115e+08
2.36031e+08
2.34931e+08
2.33817e+08
2.32689e+08
2.31546e+08
2.30389e+08
2.29218e+08
2.28034e+08
2.26837e+08
2.25627e+08
2.24404e+08
2.23169e+08
2.21921e+08
2.20661e+08
2.1939e+08
2.18107e+08
2.16812e+08
2.15507e+08
2.1419e+08
2.12863e+08
2.11525e+08
2.10177e+08
2.08819e+08
2.07451e+08
2.06072e+08
2.04685e+08
2.03288e+08
2.01881e+08
2.00466e+08
1.99041e+08
1.97608e+08
1.96166e+08
1.94716e+08
1.93257e+08
1.9179e+08
1.90315e+08
1.88833e+08
1.87343e+08
1.85845e+08
1.8434e+08
1.82827e+08
1.81308e+08
1.79781e+08
1.78248e+08
1.76708e+08
1.75161e+08
1.73608e+08
1.72049e+08
1.70483e+08
1.68912e+08
1.67335e+08
1.65752e+08
1.64163e+08
1.62569e+08
1.6097e+08
1.59365e+08
1.57756e+08
1.56141e+08
1.54522e+08
1.52898e+08
1.51269e+08
1.49636e+08
1.47999e+08
1.46358e+08
1.44713e+08
1.43064e+08
1.41412e+08
1.39756e+08
1.38097e+08
1.36434e+08
1.34769e+08
1.331e+08
1.31429e+08
1.29756e+08
1.2808e+08
1.26401e+08
1.24721e+08
1.23039e+08
1.21355e+08
1.1967e+08
1.17983e+08
1.16296e+08
1.14607e+08
1.12918e+08
1.11228e+08
1.09537e+08
1.07847e+08
1.06157e+08
1.04467e+08
1.02777e+08
1.01088e+08
9.94005e+07
9.77139e+07
9.60287e+07
9.43452e+07
9.26636e+07
9.09842e+07
8.93073e+07
8.76331e+07
8.59618e+07
8.42938e+07
8.26294e+07
8.09688e+07
7.93123e+07
7.76603e+07
7.6013e+07
7.43707e+07
7.27339e+07
7.11027e+07
6.94775e+07
6.78587e+07
6.62467e+07
6.46417e+07
6.30442e+07
6.14545e+07
5.98731e+07
5.83002e+07
5.67363e+07
5.51819e+07
5.36373e+07
5.21031e+07
5.05795e+07
4.90673e+07
4.75667e+07
4.60783e+07
4.46027e+07
4.31404e+07
4.1692e+07
4.02579e+07
3.88387e+07
3.74349e+07
3.60466e+07
3.46736e+07
3.33149e+07
2.65448e+08
2.65414e+08
2.6535e+08
2.65256e+08
2.65131e+08
2.64975e+08
2.64788e+08
2.64571e+08
2.64323e+08
2.64043e+08
2.63734e+08
2.63394e+08
2.63024e+08
2.62625e+08
2.62197e+08
2.6174e+08
2.61256e+08
2.60744e+08
2.60205e+08
2.5964e+08
2.59049e+08
2.58433e+08
2.57792e+08
2.57127e+08
2.56439e+08
2.55727e+08
2.54993e+08
2.54237e+08
2.5346e+08
2.52661e+08
2.51842e+08
2.51003e+08
2.50144e+08
2.49265e+08
2.48368e+08
2.47453e+08
2.46519e+08
2.45567e+08
2.44598e+08
2.43613e+08
2.4261e+08
2.41591e+08
2.40556e+08
2.39505e+08
2.38439e+08
2.37357e+08
2.36261e+08
2.3515e+08
2.34025e+08
2.32886e+08
2.31733e+08
2.30566e+08
2.29387e+08
2.28194e+08
2.26988e+08
2.2577e+08
2.24539e+08
2.23297e+08
2.22042e+08
2.20776e+08
2.19498e+08
2.18209e+08
2.16909e+08
2.15598e+08
2.14276e+08
2.12944e+08
2.11602e+08
2.10249e+08
2.08887e+08
2.07514e+08
2.06132e+08
2.04741e+08
2.0334e+08
2.01931e+08
2.00512e+08
1.99085e+08
1.97649e+08
1.96204e+08
1.94752e+08
1.93291e+08
1.91822e+08
1.90345e+08
1.8886e+08
1.87368e+08
1.85869e+08
1.84362e+08
1.82848e+08
1.81327e+08
1.79799e+08
1.78265e+08
1.76723e+08
1.75176e+08
1.73622e+08
1.72062e+08
1.70495e+08
1.68923e+08
1.67345e+08
1.65761e+08
1.64172e+08
1.62577e+08
1.60977e+08
1.59372e+08
1.57762e+08
1.56147e+08
1.54527e+08
1.52903e+08
1.51274e+08
1.49641e+08
1.48003e+08