/*--------------------------------*- C++ -*----------------------------------*\
| =========                 |                                                 |
| \\      /  F ield         | OpenFOAM: The Open Source CFD Toolbox           |
|  \\    /   O peration     | Version:  2.1.x                                 |
|   \\  /    A nd           | Web:      www.OpenFOAM.org                      |
|    \\/     M anipulation  |                                                 |
\*---------------------------------------------------------------------------*/
FoamFile
{
    version     2.0;
    format      ascii;
    class       volVectorField;
    location    "0.001";
    object      U;
}
// * * * * * * * * * * * * * * * * * * * * * * * * * * * * * * * * * * * * * //

dimensions      [0 1 -1 0 0 0 0];

internalField   nonuniform List<vector> 
12225
(
(7.01886 0.432588 0)
(4.4614 0.184891 0)
(3.17115 0.0295908 0)
(2.51924 -0.00684855 0)
(2.31246 -0.0141936 0)
(2.34517 -0.0150905 0)
(2.53966 -0.0167829 0)
(2.68982 -0.00585119 0)
(2.63928 0.00761356 0)
(3.08371 -0.0309533 0)
(2.76431 0.00256364 0)
(3.21121 0.0116945 0)
(3.62594 -0.0533505 0)
(3.52921 -0.0524223 0)
(3.76539 0.0278004 0)
(4.92148 -0.029064 0)
(6.94586 -0.181863 0)
(2.66593 0.0141416 0)
(9.89004 1.00169 0)
(9.10128 0.781488 0)
(8.11697 0.408398 0)
(7.18775 0.204056 0)
(6.73114 0.04122 0)
(6.60994 -0.0520691 0)
(6.86695 -0.105131 0)
(7.17049 -0.0239478 0)
(6.86299 -0.0674494 0)
(8.16645 -0.103579 0)
(6.99182 0.032047 0)
(8.0524 -0.278005 0)
(9.03306 -0.235271 0)
(8.48154 0.178515 0)
(8.15254 -0.515299 0)
(11.4915 -1.20848 0)
(11.8823 0.17912 0)
(10.7161 -0.395822 0)
(10.264 0.923161 0)
(10.7542 0.864389 0)
(10.6329 0.539761 0)
(10.1539 0.351623 0)
(9.88581 0.117098 0)
(9.50287 -0.0393418 0)
(9.97989 -0.206575 0)
(9.67403 -0.00473417 0)
(9.94646 -0.187128 0)
(11.0533 -0.27841 0)
(9.16817 0.221933 0)
(11.3798 -0.631905 0)
(11.7185 -0.521619 0)
(10.023 0.43442 0)
(11.9323 -0.946093 0)
(13.9076 -1.65165 0)
(11.1599 -0.267475 0)
(13.0177 -1.09185 0)
(10.2164 0.616041 0)
(10.7374 0.745258 0)
(11.0134 0.559873 0)
(11.0977 0.385544 0)
(10.9228 0.187838 0)
(10.8045 -0.0779819 0)
(10.7171 -0.150799 0)
(10.579 0.0104299 0)
(11.4109 -0.469682 0)
(10.1556 0.104776 0)
(11.5522 -0.0472357 0)
(11.8873 -1.00437 0)
(10.0099 0.0404141 0)
(11.8233 0.327363 0)
(13.6454 -1.62422 0)
(11.0596 -1.2308 0)
(11.1115 0.0391552 0)
(13.7046 -2.29943 0)
(9.88813 0.611191 0)
(10.4332 0.721699 0)
(10.8981 0.494689 0)
(11.1492 0.341087 0)
(11.0746 0.11803 0)
(10.8495 -0.0217605 0)
(10.7188 -0.106867 0)
(10.9258 -0.316065 0)
(10.7285 0.177114 0)
(11.0843 -0.629039 0)
(11.2221 -0.31072 0)
(10.969 0.123524 0)
(11.5802 -0.811643 0)
(12.0024 -1.15187 0)
(11.698 -0.540241 0)
(11.7348 -0.475364 0)
(12.8857 -1.87705 0)
(13.6353 -3.06713 0)
(10.1806 0.38344 0)
(10.4727 0.550952 0)
(10.8174 0.478868 0)
(11.0758 0.364241 0)
(11.0204 0.200307 0)
(10.7775 0.0336291 0)
(10.836 -0.179059 0)
(10.6916 0.0631296 0)
(10.9739 -0.512277 0)
(11.031 -0.163477 0)
(10.805 0.057928 0)
(11.3621 -1.1659 0)
(11.6104 -0.630331 0)
(11.2576 0.253523 0)
(11.5967 -1.11969 0)
(12.3374 -2.45708 0)
(12.5873 -1.83008 0)
(11.7929 -0.666754 0)
(9.91288 0.311851 0)
(10.161 0.476889 0)
(10.6058 0.384391 0)
(10.9075 0.268632 0)
(10.8111 0.140252 0)
(10.6312 -0.00645082 0)
(10.5994 -0.021403 0)
(10.7066 -0.326487 0)
(10.8672 -0.0251941 0)
(10.7555 -0.440723 0)
(11.0907 -0.643789 0)
(11.2621 -0.170722 0)
(11.019 -0.64904 0)
(11.4099 -1.33728 0)
(12.0242 -1.14991 0)
(11.7737 -0.902728 0)
(11.2842 -1.12744 0)
(11.668 -2.52027 0)
(10.1379 0.266791 0)
(10.2351 0.348227 0)
(10.5636 0.369326 0)
(10.7911 0.319022 0)
(10.6884 0.189557 0)
(10.4985 0.0512634 0)
(10.5549 -0.13698 0)
(10.6404 -0.13176 0)
(10.7599 -0.36032 0)
(10.8861 -0.423289 0)
(10.9179 -0.285588 0)
(11.0126 -0.814977 0)
(11.3017 -0.922538 0)
(11.4033 -0.587775 0)
(11.3607 -1.03348 0)
(11.3942 -1.85511 0)
(11.8978 -2.29264 0)
(12.2891 -2.09867 0)
(10.1343 0.0625237 0)
(10.206 0.285059 0)
(10.4393 0.327881 0)
(10.6823 0.284935 0)
(10.6441 0.17893 0)
(10.5313 0.0206268 0)
(10.5836 -0.0738935 0)
(10.6695 -0.263641 0)
(10.8053 -0.269237 0)
(10.7857 -0.414599 0)
(10.8909 -0.646251 0)
(11.0976 -0.585223 0)
(11.0905 -0.721976 0)
(11.0913 -1.20295 0)
(11.4255 -1.34053 0)
(11.687 -1.44139 0)
(11.3925 -1.53478 0)
(10.7393 -1.5001 0)
(10.276 0.0521871 0)
(10.0166 0.23726 0)
(10.2174 0.301029 0)
(10.5236 0.256784 0)
(10.5348 0.138812 0)
(10.4314 0.00732964 0)
(10.4985 -0.141443 0)
(10.6103 -0.243687 0)
(10.7041 -0.356006 0)
(10.7554 -0.520093 0)
(10.8568 -0.522575 0)
(10.8838 -0.75087 0)
(11.0223 -1.01124 0)
(11.1912 -0.988679 0)
(11.1926 -1.18414 0)
(11.1003 -1.59045 0)
(11.0429 -1.94828 0)
(11.5783 -2.94636 0)
(10.146 0.19573 0)
(10.0314 0.265604 0)
(10.254 0.25102 0)
(10.5398 0.19695 0)
(10.5208 0.113961 0)
(10.4062 -0.00448896 0)
(10.4625 -0.118551 0)
(10.5625 -0.262955 0)
(10.6658 -0.381202 0)
(10.6853 -0.496619 0)
(10.7472 -0.662235 0)
(10.8471 -0.802155 0)
(10.926 -0.888656 0)
(10.929 -1.16316 0)
(10.9866 -1.4043 0)
(11.1044 -1.61027 0)
(11.2292 -1.80259 0)
(10.953 -1.45125 0)
(10.0656 0.0703894 0)
(10.004 0.170574 0)
(10.1348 0.216334 0)
(10.3064 0.188366 0)
(10.2262 0.094143 0)
(10.1247 -0.0429835 0)
(10.2315 -0.186913 0)
(10.3936 -0.329833 0)
(10.5228 -0.449048 0)
(10.5657 -0.591381 0)
(10.6539 -0.701902 0)
(10.7033 -0.839159 0)
(10.759 -1.02585 0)
(10.8349 -1.18707 0)
(10.8543 -1.33081 0)
(10.828 -1.55141 0)
(10.6987 -1.81862 0)
(10.6619 -2.40914 0)
(9.9791 0.0682321 0)
(9.87983 0.176648 0)
(10.0483 0.215787 0)
(10.2734 0.169107 0)
(10.2409 0.064065 0)
(10.1626 -0.0792928 0)
(10.2614 -0.225821 0)
(10.3988 -0.371056 0)
(10.4969 -0.501029 0)
(10.5119 -0.628783 0)
(10.5602 -0.753993 0)
(10.5944 -0.901378 0)
(10.6379 -1.02953 0)
(10.6509 -1.19995 0)
(10.6344 -1.38888 0)
(10.6295 -1.58603 0)
(10.6431 -1.75572 0)
(10.5627 -1.81947 0)
(9.9937 0.136222 0)
(9.77617 0.11711 0)
(9.92483 0.138495 0)
(10.1428 0.118985 0)
(10.0978 0.0128774 0)
(10.0158 -0.146611 0)
(10.1207 -0.305914 0)
(10.2715 -0.450693 0)
(10.3719 -0.572773 0)
(10.3871 -0.69303 0)
(10.4303 -0.805622 0)
(10.4503 -0.931245 0)
(10.4699 -1.06052 0)
(10.4746 -1.21464 0)
(10.4506 -1.3575 0)
(10.4144 -1.517 0)
(10.3444 -1.6895 0)
(10.2594 -1.90796 0)
(9.94834 0.0626685 0)
(9.7606 0.124407 0)
(9.96433 0.115442 0)
(10.2773 0.0742708 0)
(10.295 -0.0408156 0)
(10.2165 -0.201851 0)
(10.2727 -0.359015 0)
(10.3567 -0.498613 0)
(10.3878 -0.615946 0)
(10.3501 -0.726081 0)
(10.3451 -0.828866 0)
(10.3306 -0.943746 0)
(10.324 -1.05543 0)
(10.3008 -1.18595 0)
(10.2539 -1.31383 0)
(10.2056 -1.45287 0)
(10.1441 -1.5855 0)
(10.0586 -1.71399 0)
(9.98883 0.0628572 0)
(9.83799 -0.000915051 0)
(10.0075 -0.0781249 0)
(10.2825 -0.109793 0)
(10.2598 -0.153195 0)
(10.1464 -0.231112 0)
(10.1766 -0.335186 0)
(10.2464 -0.455608 0)
(10.2641 -0.574795 0)
(10.2196 -0.690997 0)
(10.2022 -0.797838 0)
(10.1772 -0.907525 0)
(10.1565 -1.01099 0)
(10.1195 -1.12559 0)
(10.0643 -1.23141 0)
(10.0061 -1.3438 0)
(9.93275 -1.452 0)
(9.84327 -1.56396 0)
(10.0348 0.149217 0)
(9.79237 -0.0353877 0)
(9.88054 -0.103295 0)
(10.043 -0.114579 0)
(9.93532 -0.162338 0)
(9.82307 -0.260491 0)
(9.89917 -0.382099 0)
(10.0168 -0.505024 0)
(10.0665 -0.613461 0)
(10.0466 -0.70979 0)
(10.0364 -0.793874 0)
(10.0138 -0.878476 0)
(9.9887 -0.9579 0)
(9.94472 -1.04536 0)
(9.88439 -1.12588 0)
(9.82053 -1.21232 0)
(9.74459 -1.29391 0)
(9.65617 -1.37645 0)
(9.93059 0.0702966 0)
(9.70293 -0.0354144 0)
(9.79614 -0.0484502 0)
(9.96383 -0.0933669 0)
(9.91123 -0.193955 0)
(9.83993 -0.322478 0)
(9.9187 -0.444777 0)
(10.0191 -0.547195 0)
(10.0408 -0.627737 0)
(9.99628 -0.695759 0)
(9.95938 -0.754387 0)
(9.91741 -0.814068 0)
(9.8746 -0.870868 0)
(9.81675 -0.934591 0)
(9.74792 -0.993174 0)
(9.67704 -1.05683 0)
(9.59722 -1.11648 0)
(9.50868 -1.17731 0)
(9.99191 -0.0369985 0)
(9.76601 0.00497179 0)
(9.84351 -0.0620289 0)
(9.98043 -0.177063 0)
(9.8766 -0.303132 0)
(9.77261 -0.418236 0)
(9.8407 -0.504634 0)
(9.93912 -0.565639 0)
(9.95818 -0.610887 0)
(9.91437 -0.651148 0)
(9.87423 -0.687996 0)
(9.83025 -0.728036 0)
(9.78226 -0.767363 0)
(9.71963 -0.812938 0)
(9.64793 -0.854904 0)
(9.57385 -0.901595 0)
(9.49256 -0.945198 0)
(9.40486 -0.990085 0)
(9.76802 -0.0886709 0)
(9.62934 -0.0105756 0)
(9.88544 -0.0253341 0)
(10.2041 -0.11763 0)
(10.1633 -0.259642 0)
(10.0205 -0.403753 0)
(10.0162 -0.509021 0)
(10.0479 -0.568964 0)
(10.0122 -0.598471 0)
(9.93014 -0.616624 0)
(9.86169 -0.631358 0)
(9.79998 -0.65071 0)
(9.73824 -0.672245 0)
(9.66611 -0.701138 0)
(9.58834 -0.728928 0)
(9.50938 -0.761999 0)
(9.42546 -0.793315 0)
(9.3372 -0.826448 0)
(9.89371 -0.263642 0)
(9.71503 -0.313438 0)
(9.93651 -0.312853 0)
(10.28 -0.323295 0)
(10.2835 -0.349359 0)
(10.157 -0.386208 0)
(10.1372 -0.426626 0)
(10.1393 -0.462085 0)
(10.0703 -0.488672 0)
(9.96007 -0.509666 0)
(9.86818 -0.52646 0)
(9.79041 -0.544512 0)
(9.7159 -0.562375 0)
(9.63482 -0.584943 0)
(9.55128 -0.6059 0)
(9.46786 -0.630956 0)
(9.38128 -0.654489 0)
(9.29194 -0.679736 0)
(9.95464 -0.152807 0)
(9.83052 -0.323331 0)
(9.99174 -0.354235 0)
(10.2045 -0.349234 0)
(10.1148 -0.348773 0)
(9.96723 -0.359189 0)
(9.97463 -0.378906 0)
(10.0195 -0.400083 0)
(9.98838 -0.416969 0)
(9.9062 -0.430126 0)
(9.83 -0.440199 0)
(9.76057 -0.45167 0)
(9.68838 -0.463394 0)
(9.60734 -0.479171 0)
(9.52311 -0.493791 0)
(9.43817 -0.512103 0)
(9.35042 -0.529447 0)
(9.26051 -0.548505 0)
(10.2577 -0.29059 0)
(10.0778 -0.377501 0)
(10.1356 -0.389915 0)
(10.2984 -0.384197 0)
(10.206 -0.376903 0)
(10.0566 -0.377405 0)
(10.0497 -0.38339 0)
(10.0762 -0.386668 0)
(10.0273 -0.384269 0)
(9.93074 -0.379185 0)
(9.84193 -0.374171 0)
(9.76315 -0.373615 0)
(9.68328 -0.376324 0)
(9.59688 -0.384348 0)
(9.50897 -0.392606 0)
(9.42095 -0.404733 0)
(9.33116 -0.416715 0)
(9.24003 -0.430559 0)
(10.0047 -0.176206 0)
(9.84721 -0.299597 0)
(10.0706 -0.341409 0)
(10.3735 -0.338143 0)
(10.3409 -0.323152 0)
(10.1858 -0.312788 0)
(10.1445 -0.311626 0)
(10.1375 -0.311181 0)
(10.0644 -0.306409 0)
(9.95246 -0.298614 0)
(9.85252 -0.291229 0)
(9.76618 -0.288168 0)
(9.68058 -0.288588 0)
(9.59055 -0.293452 0)
(9.50033 -0.298297 0)
(9.41018 -0.306143 0)
(9.31883 -0.314026 0)
(9.22656 -0.323542 0)
(10.0758 -0.232382 0)
(10.0467 -0.439679 0)
(10.3049 -0.508135 0)
(10.5987 -0.4774 0)
(10.5383 -0.395217 0)
(10.3315 -0.318805 0)
(10.2351 -0.281242 0)
(10.19 -0.265946 0)
(10.0953 -0.252423 0)
(9.97136 -0.236046 0)
(9.8628 -0.222108 0)
(9.77038 -0.214069 0)
(9.6803 -0.211221 0)
(9.58778 -0.212446 0)
(9.49617 -0.213893 0)
(9.40458 -0.217934 0)
(9.31209 -0.221862 0)
(9.21873 -0.226922 0)
(9.93292 -0.292668 0)
(10.003 -0.471619 0)
(10.4017 -0.498755 0)
(10.803 -0.443548 0)
(10.7942 -0.329176 0)
(10.5597 -0.217375 0)
(10.393 -0.1661 0)
(10.2879 -0.160212 0)
(10.1563 -0.159802 0)
(10.0094 -0.150877 0)
(9.88446 -0.142229 0)
(9.78107 -0.136852 0)
(9.68435 -0.136327 0)
(9.58878 -0.136913 0)
(9.49547 -0.136651 0)
(9.4028 -0.138487 0)
(9.30994 -0.139406 0)
(9.21563 -0.139963 0)
(10.0703 -0.434819 0)
(10.2822 -0.691373 0)
(10.6712 -0.702851 0)
(10.979 -0.574627 0)
(10.8804 -0.354089 0)
(10.5739 -0.166492 0)
(10.3582 -0.0927617 0)
(10.2403 -0.0920411 0)
(10.122 -0.097819 0)
(9.99057 -0.0888737 0)
(9.87365 -0.0798061 0)
(9.77344 -0.073656 0)
(9.67822 -0.0739626 0)
(9.58501 -0.0727655 0)
(9.49255 -0.071427 0)
(9.40022 -0.070958 0)
(9.30884 -0.0684855 0)
(9.2149 -0.0649142 0)
(10.1944 -0.384738 0)
(10.5832 -0.72481 0)
(10.8116 -0.672903 0)
(10.866 -0.52158 0)
(10.6628 -0.264254 0)
(10.3718 -0.0321989 0)
(10.1795 0.0335575 0)
(10.0706 0.00753154 0)
(9.96163 -0.0124325 0)
(9.84181 -0.00952185 0)
(9.73197 -0.00613109 0)
(9.64064 -0.00184541 0)
(9.55369 -0.00758941 0)
(9.47099 -0.00292248 0)
(9.39105 -0.00370069 0)
(9.30652 -0.00221342 0)
(9.22849 0.00396897 0)
(9.14144 0.0146078 0)
(10.1133 -0.790465 0)
(9.95804 -0.969135 0)
(9.44623 -0.761358 0)
(8.79966 -0.52422 0)
(8.26316 -0.238115 0)
(8.00189 -0.00907194 0)
(7.9704 0.0583688 0)
(8.01977 0.0349981 0)
(8.03743 0.0136957 0)
(8.02649 0.0155661 0)
(8.01217 0.0188818 0)
(8.00697 0.0230006 0)
(8.00529 0.0178191 0)
(7.98462 0.0230597 0)
(7.99824 0.0215932 0)
(7.95512 0.0251227 0)
(7.98206 0.0299427 0)
(7.927 0.0370777 0)
(8.54889 -0.328176 0)
(6.27401 -0.318367 0)
(4.62284 -0.143314 0)
(3.52784 -0.0396822 0)
(2.98852 0.0223271 0)
(2.88968 0.0414801 0)
(2.98129 0.0284423 0)
(3.07004 0.00824743 0)
(3.10402 0.0020068 0)
(3.12074 0.00727184 0)
(3.14457 0.0116623 0)
(3.17687 0.0134333 0)
(3.21128 0.0140898 0)
(3.23628 0.0167639 0)
(3.28729 0.0164722 0)
(3.2899 0.0239938 0)
(3.37919 0.0133951 0)
(3.33229 0.0408747 0)
(0.0363182 -0.080775 0)
(0.117992 -0.0884354 0)
(0.202594 -0.0891408 0)
(0.288665 -0.0893443 0)
(0.375623 -0.0894676 0)
(0.463386 -0.089541 0)
(0.551935 -0.0895638 -8.19041e-20)
(0.641233 -0.0895303 8.12734e-20)
(0.731232 -0.0894333 0)
(0.821873 -0.0892664 8.00125e-20)
(0.913094 -0.0890231 0)
(1.00482 -0.088696 0)
(1.09697 -0.0882756 0)
(1.18945 -0.0877539 -7.74961e-20)
(1.28215 -0.0871268 0)
(1.37496 -0.0863912 0)
(1.46777 -0.0855409 7.56187e-20)
(1.56045 -0.0845717 0)
(1.65289 -0.0834891 0)
(1.74493 -0.0822971 0)
(1.83641 -0.0809874 -7.3137e-20)
(1.92722 -0.0795568 0)
(2.01728 -0.0780238 -7.1908e-20)
(2.10642 -0.0764046 0)
(2.19443 -0.0746907 0)
(2.28126 -0.0728769 -7.0082e-20)
(2.36684 -0.0709876 0)
(2.45101 -0.0690515 6.88773e-20)
(2.53358 -0.067062 0)
(2.61453 -0.0649978 -6.76835e-20)
(2.69388 -0.0628838 0)
(2.77145 -0.0607742 0)
(2.84706 -0.0586646 0)
(2.92076 -0.0565105 0)
(2.99263 -0.0543313 0)
(3.0625 -0.0521917 6.417e-20)
(3.13023 -0.0500917 0)
(3.19593 -0.0479821 -1.26044e-19)
(3.25966 -0.0458729 0)
(3.32131 -0.0438238 1.23772e-19)
(3.3808 -0.0418387 0)
(3.43825 -0.0398721 0)
(3.49372 -0.0379253 -1.20407e-19)
(3.54715 -0.0360462 0)
(3.5985 -0.034245 -1.18193e-19)
(3.64787 -0.0324844 1.17095e-19)
(3.69537 -0.0307541 0)
(3.74095 -0.0290891 1.14916e-19)
(3.78459 -0.0275052 1.13835e-19)
(3.82638 -0.0259761 0)
(3.86644 -0.0244833 0)
(3.90476 -0.0230458 0)
(3.94133 -0.0216838 0)
(3.97622 -0.0203846 0)
(4.00953 -0.0191269 -1.07473e-19)
(4.04131 -0.0179151 0)
(4.07155 -0.0167659 1.05399e-19)
(4.10029 -0.0156784 0)
(4.12761 -0.014636 0)
(4.1536 -0.0136331 -1.02331e-19)
(4.17827 -0.0126798 0)
(4.20162 -0.0117812 1.00315e-19)
(4.22373 -0.0109277 0)
(4.24467 -0.0101094 0)
(4.26449 -0.00932863 0)
(4.28318 -0.00859229 -9.63531e-20)
(4.3008 -0.00789868 0)
(4.31741 -0.00723837 0)
(4.33305 -0.00660712 -9.34426e-20)
(4.34776 -0.0060093 0)
(4.36155 -0.00544755 -9.15314e-20)
(4.37446 -0.00491705 0)
(4.38656 -0.00441119 0)
(4.39787 -0.00392953 0)
(4.40841 -0.00347601 8.77789e-20)
(4.41821 -0.00305039 0)
(4.42731 -0.00264695 0)
(4.43575 -0.00226112 8.50252e-20)
(4.44354 -0.00189459 8.41189e-20)
(4.45072 -0.00155022 0)
(4.4573 -0.00122611 8.23234e-20)
(4.46333 -0.000916402 0)
(4.46883 -0.000616788 1.61102e-19)
(4.47383 -0.000328941 0)
(4.47833 -5.85664e-05 1.57602e-19)
(4.48238 0.00018359 0)
(4.48598 0.0003736 -1.54148e-19)
(4.48915 0.000550047 0)
(4.4919 0.000716455 0)
(4.49426 0.000869847 0)
(4.49624 0.00100992 1.47374e-19)
(4.49786 0.00114355 0)
(4.49915 0.0012731 -1.44053e-19)
(4.50013 0.00139847 0)
(4.5008 0.00151385 1.40776e-19)
(4.50117 0.00161919 1.39154e-19)
(4.50125 0.00171807 1.37543e-19)
(4.50107 0.00181314 0)
(4.50065 0.00190494 0)
(4.49998 0.00199164 0)
(4.49906 0.00207148 0)
(4.49792 0.00214456 0)
(4.49656 0.0022128 0)
(4.495 0.00227831 0)
(4.49325 0.00234147 0)
(4.49132 0.00240069 -1.23517e-19)
(4.48919 0.00245477 -1.2201e-19)
(4.48689 0.00250428 0)
(4.48442 0.0025505 0)
(4.4818 0.00259475 0)
(4.47902 0.00263733 -1.16083e-19)
(4.47611 0.00267733 0)
(4.47304 0.00271421 0)
(4.46984 0.0027482 0)
(4.4665 0.00277992 0)
(4.46303 0.00281001 1.08894e-19)
(4.45944 0.00283878 0)
(4.45574 0.00286605 0)
(4.45192 0.00289176 -1.04695e-19)
(4.44798 0.00291601 1.03314e-19)
(4.44394 0.00293873 0)
(4.43978 0.00295995 1.00579e-19)
(4.43552 0.00297965 0)
(4.43116 0.0029982 -9.78798e-20)
(4.4267 0.00301602 0)
(4.42214 0.0030333 0)
(4.41749 0.00304991 0)
(4.41275 0.00306555 0)
(4.40791 0.00308009 0)
(4.40298 0.00309374 1.79985e-19)
(4.39795 0.00310688 1.77415e-19)
(4.39284 0.00311967 0)
(4.38764 0.00313226 0)
(4.38236 0.00314462 0)
(4.37699 0.00315639 -1.67302e-19)
(4.37153 0.00316756 0)
(4.36598 0.00317826 0)
(4.36034 0.00318878 0)
(4.35462 0.00319938 -1.57444e-19)
(4.34881 0.00320998 1.55018e-19)
(4.34292 0.00322023 0)
(4.33694 0.00322992 0)
(4.33087 0.00323919 1.47832e-19)
(4.32471 0.00324821 1.45467e-19)
(4.31847 0.00325717 0)
(4.31213 0.00326631 0)
(4.30571 0.00327568 -1.38457e-19)
(4.29919 0.00328508 1.36149e-19)
(4.29259 0.00329434 0)
(4.28589 0.00330325 0)
(4.27909 0.00331203 1.29308e-19)
(4.2722 0.00332083 0)
(4.2652 0.00332996 0)
(4.2581 0.00333961 1.22589e-19)
(4.2509 0.00334964 0)
(4.24359 0.0033604 1.18175e-19)
(4.23617 0.00337176 0)
(4.22862 0.00338378 0)
(4.22095 0.00339697 0)
(4.21314 0.00341141 -1.095e-19)
(4.20517 0.00342777 0)
(4.19704 0.0034466 0)
(4.18873 0.0034682 0)
(4.18022 0.00349346 0)
(4.17147 0.00352368 0)
(4.16244 0.00355955 0)
(4.15309 0.00360301 -9.47787e-20)
(4.14334 0.0036573 -9.27208e-20)
(4.13312 0.003725 0)
(4.12228 0.00381317 0)
(4.11069 0.00392787 0)
(4.09807 0.00408257 8.45922e-20)
(4.08415 0.00430142 0)
(4.06814 0.00457995 -1.61168e-19)
(4.05009 0.00516418 1.57183e-19)
(4.0258 0.00531383 1.53208e-19)
(4.00075 0.00864864 -1.4924e-19)
(3.94931 0.00459408 1.45259e-19)
(3.91003 0.0344336 -1.41297e-19)
(3.75453 0.0193664 0)
(0.0346471 -0.243645 0)
(0.119185 -0.270523 0)
(0.204723 -0.272809 1.68957e-19)
(0.292274 -0.273449 0)
(0.380772 -0.273889 -1.66435e-19)
(0.470113 -0.27422 -1.65173e-19)
(0.5603 -0.274431 -8.19995e-20)
(0.651313 -0.274505 -8.12816e-20)
(0.743113 -0.274418 0)
(0.835648 -0.274146 -8.00229e-20)
(0.928864 -0.273665 0)
(1.0227 -0.272949 0)
(1.11708 -0.271974 1.56349e-19)
(1.21191 -0.270717 7.75121e-20)
(1.30709 -0.269161 -1.53839e-19)
(1.4025 -0.267292 -1.52588e-19)
(1.49805 -0.265095 -7.56398e-20)
(1.59359 -0.26256 0)
(1.689 -0.259682 0)
(1.78417 -0.256461 0)
(1.87894 -0.252905 -7.32145e-20)
(1.97316 -0.249026 0)
(2.06671 -0.244829 2.15866e-19)
(2.15949 -0.240326 0)
(2.25132 -0.235542 0)
(2.34208 -0.230513 7.01205e-20)
(2.43167 -0.225248 0)
(2.51998 -0.219752 -6.89198e-20)
(2.60688 -0.214068 -1.36679e-19)
(2.6923 -0.208248 6.77297e-20)
(2.77615 -0.202305 0)
(2.85829 -0.196244 0)
(2.93869 -0.190097 0)
(3.01734 -0.183904 -1.30792e-19)
(3.09418 -0.177694 -1.29631e-19)
(3.16905 -0.171485 -6.42267e-20)
(3.24195 -0.165282 0)
(3.31297 -0.159108 1.26164e-19)
(3.38206 -0.153004 0)
(3.44906 -0.146988 -1.23897e-19)
(3.51403 -0.141047 0)
(3.57709 -0.135189 0)
(3.6382 -0.129457 1.20539e-19)
(3.69726 -0.123875 0)
(3.75429 -0.118418 3.5502e-19)
(3.80945 -0.11307 -1.17233e-19)
(3.86276 -0.107869 0)
(3.91413 -0.102851 -1.15058e-19)
(3.96356 -0.0979934 -1.13978e-19)
(4.01121 -0.0932619 0)
(4.05714 -0.0886743 0)
(4.10132 -0.0842699 0)
(4.14372 -0.0800444 0)
(4.18443 -0.0759596 0)
(4.22359 -0.0720063 1.07622e-19)
(4.26118 -0.0682148 2.13185e-19)
(4.2972 -0.0646002 -1.05549e-19)
(4.33169 -0.0611362 0)
(4.36475 -0.0577959 2.07015e-19)
(4.39644 -0.054588 -1.02498e-19)
(4.42676 -0.0515344 0)
(4.45573 -0.0486303 -1.00467e-19)
(4.48343 -0.045849 0)
(4.50992 -0.0431787 0)
(4.53523 -0.0406318 -1.94984e-19)
(4.55938 -0.0382174 9.65037e-20)
(4.58241 -0.035923 -1.91066e-19)
(4.60438 -0.0337294 1.89125e-19)
(4.62534 -0.0316335 9.35921e-20)
(4.64532 -0.0296442 0)
(4.66433 -0.0277619 9.16798e-20)
(4.68242 -0.0259736 0)
(4.69965 -0.0242674 0)
(4.71605 -0.0226441 0)
(4.73163 -0.0211088 8.79325e-20)
(4.74642 -0.0196576 0)
(4.76048 -0.0182794 1.7217e-19)
(4.77384 -0.0169675 -2.55513e-19)
(4.78652 -0.0157242 -8.42613e-20)
(4.79853 -0.0145516 0)
(4.80991 -0.0134434 -8.24641e-20)
(4.82071 -0.0123887 0)
(4.83095 -0.0113826 -1.61379e-19)
(4.84065 -0.0104294 0)
(4.84982 -0.00953574 -1.57876e-19)
(4.85845 -0.00870669 3.12292e-19)
(4.86663 -0.00795139 1.54418e-19)
(4.87438 -0.0072401 0)
(4.8817 -0.00656893 0)
(4.88861 -0.00594055 0)
(4.89512 -0.0053527 -1.47635e-19)
(4.90126 -0.00480191 0)
(4.90706 -0.00427797 1.4431e-19)
(4.91252 -0.00378099 0)
(4.91766 -0.0033176 -4.23093e-19)
(4.92249 -0.0028864 -1.39405e-19)
(4.92703 -0.00248074 -1.37791e-19)
(4.93131 -0.00209579 0)
(4.93534 -0.00173044 0)
(4.93913 -0.00138725 0)
(4.94268 -0.00106859 0)
(4.94599 -0.000773054 0)
(4.9491 -0.00049601 -2.56672e-19)
(4.95203 -0.000233166 -2.53593e-19)
(4.95477 1.61511e-05 0)
(4.95735 0.000249537 1.23746e-19)
(4.95975 0.000465154 1.22237e-19)
(4.96198 0.000664137 0)
(4.96407 0.000849777 2.38503e-19)
(4.96602 0.0010252 0)
(4.96785 0.00119146 -1.16306e-19)
(4.96956 0.00134754 0)
(4.97115 0.00149238 0)
(4.97262 0.00162616 2.23911e-19)
(4.97399 0.00175014 0)
(4.97526 0.00186595 -1.09103e-19)
(4.97645 0.00197489 0)
(4.97754 0.00207756 0)
(4.97856 0.00217425 -1.04902e-19)
(4.97951 0.00226492 -1.03515e-19)
(4.98038 0.00234915 0)
(4.98118 0.00242663 1.0078e-19)
(4.98191 0.00249765 0)
(4.98259 0.00256342 -9.80766e-20)
(4.98321 0.00262553 -1.93474e-19)
(4.98378 0.00268497 0)
(4.9843 0.00274161 0)
(4.98479 0.00279471 0)
(4.98522 0.00284368 0)
(4.98561 0.00288853 -1.80351e-19)
(4.98596 0.00292999 -5.33338e-19)
(4.98628 0.00296924 0)
(4.98656 0.00300725 0)
(4.98682 0.00304427 0)
(4.98705 0.0030797 1.6765e-19)
(4.98724 0.00311274 0)
(4.98741 0.00314304 0)
(4.98754 0.00317122 -3.20451e-19)
(4.98765 0.00319841 -1.57784e-19)
(4.98774 0.00322524 -1.55349e-19)
(4.98781 0.00325154 0)
(4.98786 0.0032769 0)
(4.98788 0.00330104 -1.48153e-19)
(4.98789 0.00332365 1.45789e-19)
(4.98787 0.00334483 0)
(4.98782 0.00336564 0)
(4.98777 0.00338714 1.38764e-19)
(4.98769 0.0034093 -4.09364e-19)
(4.98759 0.00343184 0)
(4.98748 0.00345472 0)
(4.98734 0.00347768 -1.29602e-19)
(4.98717 0.00350052 0)
(4.98698 0.00352387 -2.5021e-19)
(4.98677 0.00354867 1.22878e-19)
(4.98652 0.00357551 0)
(4.98624 0.00360565 -1.18453e-19)
(4.98593 0.00363975 -2.32528e-19)
(4.98557 0.00367831 0)
(4.98516 0.00372316 0)
(4.98468 0.00377487 1.09764e-19)
(4.98412 0.0038359 0)
(4.98345 0.00390949 -2.1099e-19)
(4.98267 0.00399809 0)
(4.98174 0.00410699 0)
(4.98062 0.00424314 0)
(4.97926 0.00441236 0)
(4.97759 0.00462531 9.50188e-20)
(4.97551 0.00489753 9.29573e-20)
(4.97292 0.00524528 0)
(4.96965 0.00570003 0)
(4.96549 0.00629842 0)
(4.96009 0.00709649 -8.48138e-20)
(4.9531 0.00821481 0)
(4.94361 0.0096615 1.61595e-19)
(4.93128 0.0122326 -1.57601e-19)
(4.91276 0.014347 -1.53617e-19)
(4.88904 0.0243733 -1.4966e-19)
(4.84963 0.0226598 -1.45647e-19)
(4.80227 0.0857706 -1.41771e-19)
(4.72867 0.0734741 0)
(0.0328044 -0.40332 0)
(0.117483 -0.452037 0)
(0.202817 -0.456037 -1.68956e-19)
(0.290449 -0.457109 -1.67855e-19)
(0.379115 -0.457888 1.66435e-19)
(0.468688 -0.458513 1.65173e-19)
(0.559159 -0.458958 -1.47745e-22)
(0.650509 -0.459187 0)
(0.742704 -0.459158 0)
(0.8357 -0.458827 0)
(0.929441 -0.458147 0)
(1.02386 -0.45707 0)
(1.11886 -0.455557 -4.69288e-19)
(1.21435 -0.453569 0)
(1.31023 -0.451074 1.53841e-19)
(1.40637 -0.448041 1.5259e-19)
(1.50265 -0.444443 0)
(1.59894 -0.440272 0)
(1.69511 -0.435531 0)
(1.79101 -0.430211 0)
(1.88644 -0.424312 1.46385e-19)
(1.9813 -0.417859 0)
(2.07551 -0.410883 -1.43931e-19)
(2.16888 -0.403399 0)
(2.26117 -0.395436 0)
(2.35234 -0.387046 0)
(2.44238 -0.378267 -2.78282e-19)
(2.53109 -0.369131 0)
(2.61821 -0.359695 1.36688e-19)
(2.70373 -0.350003 -2.71103e-19)
(2.78777 -0.340086 0)
(2.87012 -0.329996 0)
(2.95055 -0.319797 0)
(3.02908 -0.30952 1.30804e-19)
(3.10585 -0.299185 1.29644e-19)
(3.18072 -0.288845 0)
(3.25352 -0.278555 0)
(3.3243 -0.268337 -2.52469e-19)
(3.39313 -0.258198 -2.50193e-19)
(3.46 -0.248172 2.47928e-19)
(3.5248 -0.238307 0)
(3.58756 -0.228628 0)
(3.64833 -0.219134 0)
(3.70715 -0.209828 0)
(3.764 -0.200735 -2.36728e-19)
(3.81888 -0.191888 -2.34583e-19)
(3.87184 -0.183295 2.32399e-19)
(3.92291 -0.17494 0)
(3.97215 -0.16682 0)
(4.01958 -0.158958 0)
(4.06522 -0.151378 0)
(4.10909 -0.144066 -2.21652e-19)
(4.15128 -0.136996 0)
(4.19184 -0.130169 0)
(4.23078 -0.12361 -2.15342e-19)
(4.26813 -0.117328 -2.13232e-19)
(4.30394 -0.111293 0)
(4.33829 -0.10548 4.18269e-19)
(4.37122 -0.0998979 -2.07063e-19)
(4.40275 -0.0945671 2.0503e-19)
(4.4329 -0.0894815 0)
(4.46174 -0.0846106 0)
(4.48935 -0.0799375 0)
(4.51576 -0.0754728 0)
(4.54096 -0.0712277 1.95035e-19)
(4.56502 -0.0671886 3.86177e-19)
(4.58798 -0.0633295 1.91118e-19)
(4.60991 -0.0596409 -1.89176e-19)
(4.63083 -0.0561311 0)
(4.65075 -0.0528037 3.70686e-19)
(4.66972 -0.049644 3.66871e-19)
(4.68781 -0.0466329 3.63079e-19)
(4.70503 -0.0437647 -3.5931e-19)
(4.72142 -0.0410442 0)
(4.73699 -0.0384707 -5.27752e-19)
(4.7518 -0.036032 0)
(4.76588 -0.0337153 1.72243e-19)
(4.77926 -0.0315168 1.70397e-19)
(4.79196 -0.0294375 0)
(4.80401 -0.0274729 0)
(4.81543 -0.0256122 3.29991e-19)
(4.82628 -0.0238477 0)
(4.83658 -0.0221803 3.22891e-19)
(4.84633 -0.0206135 0)
(4.85554 -0.019143 -3.15882e-19)
(4.86426 -0.0177534 -6.24809e-19)
(4.87251 -0.0164229 0)
(4.88034 -0.0151647 0)
(4.88775 -0.0139826 0)
(4.89474 -0.012876 -2.98752e-19)
(4.90133 -0.0118355 0)
(4.90756 -0.0108557 -2.92057e-19)
(4.91346 -0.00993034 0)
(4.91902 -0.00905823 0)
(4.92426 -0.00824219 5.64347e-19)
(4.9292 -0.00747866 0)
(4.93385 -0.00676019 2.757e-19)
(4.93824 -0.00608178 0)
(4.94239 -0.005443 2.69309e-19)
(4.94629 -0.00484579 0)
(4.94996 -0.00428995 0)
(4.9534 -0.00377082 0)
(4.95664 -0.00328198 7.70337e-19)
(4.9597 -0.00281999 2.53695e-19)
(4.96258 -0.00238564 0)
(4.96529 -0.00198129 0)
(4.96783 -0.00160726 0)
(4.97021 -0.00126019 0)
(4.97244 -0.000934906 -2.38603e-19)
(4.97455 -0.00062788 4.713e-19)
(4.97653 -0.000338783 2.32707e-19)
(4.9784 -6.90122e-05 -4.59585e-19)
(4.98014 0.000180662 -4.53787e-19)
(4.98178 0.000411125 -2.2401e-19)
(4.98332 0.000624692 0)
(4.98476 0.000824038 -4.36622e-19)
(4.98612 0.00101112 0)
(4.98739 0.00118678 4.25369e-19)
(4.9886 0.00135129 2.09896e-19)
(4.98972 0.00150442 0)
(4.99078 0.00164559 -4.08768e-19)
(4.99177 0.00177488 -2.01651e-19)
(4.9927 0.00189357 0)
(4.99358 0.00200404 -1.9625e-19)
(4.99441 0.00210864 5.80708e-19)
(4.99519 0.00220835 0)
(4.99593 0.00230254 0)
(4.99663 0.00238984 0)
(4.99729 0.00246923 0)
(4.99791 0.00254098 3.60894e-19)
(4.99849 0.00260685 3.55741e-19)
(4.99905 0.00266924 0)
(4.99958 0.00272984 0)
(5.00009 0.00278865 0)
(5.00057 0.00284408 0)
(5.00103 0.0028943 0)
(5.00146 0.00293899 0)
(5.00187 0.00297972 3.20624e-19)
(5.00226 0.00301864 -4.98812e-24)
(5.00264 0.00305713 0)
(5.003 0.00309535 0)
(5.00335 0.00313252 3.01253e-19)
(5.00368 0.00316727 0)
(5.00399 0.00319849 -2.9174e-19)
(5.00429 0.00322653 -2.87035e-19)
(5.00458 0.00325369 0)
(5.00486 0.00328217 0)
(5.00513 0.00331219 2.73072e-19)
(5.00539 0.00334328 5.36962e-19)
(5.00564 0.00337556 0)
(5.00587 0.00340825 0)
(5.00608 0.00344006 0)
(5.00628 0.00347192 2.50366e-19)
(5.00646 0.00350632 -2.45905e-19)
(5.00663 0.00354455 0)
(5.00677 0.00358842 -4.74131e-19)
(5.00689 0.0036398 -2.32687e-19)
(5.00697 0.00369929 4.56649e-19)
(5.00701 0.00376932 0)
(5.007 0.00385164 0)
(5.00692 0.00394948 4.30796e-19)
(5.00675 0.00406914 2.11133e-19)
(5.00648 0.00421613 0)
(5.00608 0.00439915 0)
(5.00551 0.00463094 0)
(5.00471 0.00492296 0)
(5.00362 0.00529312 3.80363e-19)
(5.00216 0.00576985 0)
(5.00022 0.00638228 0)
(4.99763 0.00718298 0)
(4.99419 0.00824053 0)
(4.9896 0.00964914 0)
(4.98351 0.0115962 0)
(4.97505 0.0142112 3.23459e-19)
(4.96415 0.0183134 0)
(4.94707 0.0235119 0)
(4.92832 0.0353854 5.99099e-19)
(4.89264 0.0480901 -2.91653e-19)
(4.86382 0.0980032 2.83668e-19)
(4.81566 0.128709 -2.76036e-19)
(0.029885 -0.558184 0)
(0.114788 -0.633879 3.41193e-19)
(0.19994 -0.640124 0)
(0.287776 -0.641784 1.67855e-19)
(0.376736 -0.643036 0)
(0.466696 -0.644102 0)
(0.557645 -0.644944 -1.64476e-19)
(0.64957 -0.645501 0)
(0.742441 -0.645705 0)
(0.836215 -0.645484 0)
(0.930834 -0.644766 0)
(1.02622 -0.643482 0)
(1.12228 -0.641568 6.26212e-19)
(1.21889 -0.63896 3.10738e-19)
(1.31595 -0.635607 -3.08206e-19)
(1.41332 -0.631471 0)
(1.51087 -0.626514 0)
(1.60838 -0.620716 0)
(1.70574 -0.614079 0)
(1.80284 -0.606609 0)
(1.89947 -0.598308 2.93158e-19)
(1.99542 -0.589201 2.9068e-19)
(2.09059 -0.579335 -2.88212e-19)
(2.18488 -0.568745 2.85754e-19)
(2.27807 -0.557484 0)
(2.37 -0.545614 0)
(2.46062 -0.533185 2.78283e-19)
(2.5498 -0.520261 0)
(2.63739 -0.506922 0)
(2.72335 -0.49322 2.71104e-19)
(2.80761 -0.479215 2.68868e-19)
(2.88996 -0.464996 2.66503e-19)
(2.97041 -0.450619 0)
(3.04904 -0.436116 0)
(3.12573 -0.421558 -2.5948e-19)
(3.20029 -0.407036 0)
(3.27277 -0.39258 0)
(3.34334 -0.37819 2.5247e-19)
(3.41191 -0.363929 -2.50375e-19)
(3.4783 -0.349886 2.48101e-19)
(3.54255 -0.336079 0)
(3.60487 -0.322483 0)
(3.66526 -0.309127 4.82559e-19)
(3.72357 -0.296087 0)
(3.77978 -0.283393 4.73695e-19)
(3.83408 -0.271014 7.03883e-19)
(3.88656 -0.258937 -6.97326e-19)
(3.93715 -0.247208 4.60575e-19)
(3.98579 -0.235869 0)
(4.0326 -0.224906 0)
(4.07769 -0.214281 4.47663e-19)
(4.1211 -0.203996 2.21655e-19)
(4.16279 -0.194086 0)
(4.20277 -0.184566 0)
(4.24116 -0.175409 2.15345e-19)
(4.27804 -0.166583 4.26607e-19)
(4.31343 -0.158088 0)
(4.34732 -0.149946 -4.18276e-19)
(4.37977 -0.142158 4.1425e-19)
(4.41083 -0.134701 -4.10178e-19)
(4.44059 -0.127545 0)
(4.46907 -0.120687 0)
(4.4963 -0.114139 0)
(4.5223 -0.1079 0)
(4.54714 -0.101948 0)
(4.57087 -0.096256 -3.86185e-19)
(4.59354 -0.0908192 0)
(4.61515 -0.0856431 0)
(4.63576 -0.0807258 0)
(4.65539 -0.0760495 -7.41425e-19)
(4.67411 -0.0715934 -3.66879e-19)
(4.69195 -0.0673488 -3.63087e-19)
(4.70893 -0.0633172 7.18669e-19)
(4.72508 -0.0594963 -3.55603e-19)
(4.74044 -0.0558737 3.51851e-19)
(4.75504 -0.0524337 0)
(4.76893 -0.0491668 -3.44475e-19)
(4.78213 -0.0460691 0)
(4.79465 -0.0431355 0)
(4.80654 -0.0403571 0)
(4.81781 -0.0377258 -6.60021e-19)
(4.82851 -0.035238 3.26458e-19)
(4.83866 -0.0328913 3.22936e-19)
(4.84827 -0.0306784 6.38803e-19)
(4.85737 -0.0285865 9.47705e-19)
(4.86598 -0.0266028 3.1242e-19)
(4.87414 -0.024722 0)
(4.88186 -0.0229495 6.1112e-19)
(4.88915 -0.0212862 0)
(4.89605 -0.0197245 8.9631e-19)
(4.90256 -0.0182532 0)
(4.90871 -0.0168609 8.76221e-19)
(4.91453 -0.0155486 0)
(4.92002 -0.0143155 0)
(4.92519 -0.0131596 2.82207e-19)