/*--------------------------------*- C++ -*----------------------------------*\
| =========                 |                                                 |
| \\      /  F ield         | OpenFOAM: The Open Source CFD Toolbox           |
|  \\    /   O peration     | Version:  2.1.x                                 |
|   \\  /    A nd           | Web:      www.OpenFOAM.org                      |
|    \\/     M anipulation  |                                                 |
\*---------------------------------------------------------------------------*/
FoamFile
{
    version     2.0;
    format      ascii;
    class       volVectorField;
    location    "0.001";
    object      U_0;
}
// * * * * * * * * * * * * * * * * * * * * * * * * * * * * * * * * * * * * * //

dimensions      [0 1 -1 0 0 0 0];

internalField   nonuniform List<vector> 
12225
(
(7.00023 0.427134 0)
(4.46415 0.183022 0)
(3.18272 0.0292307 0)
(2.53665 -0.00729341 0)
(2.33725 -0.0145515 0)
(2.37776 -0.0156147 0)
(2.57414 -0.0167719 0)
(2.72126 -0.00545259 0)
(2.67907 0.00635397 0)
(3.11727 -0.0307084 0)
(2.79398 0.00330842 0)
(3.26725 0.00920035 0)
(3.66129 -0.0541801 0)
(3.54647 -0.0503637 0)
(3.8383 0.0268598 0)
(5.05405 -0.0314638 0)
(6.88472 -0.210467 0)
(2.6029 0.0138915 0)
(9.86977 0.98545 0)
(9.10285 0.774431 0)
(8.13015 0.406802 0)
(7.21132 0.201407 0)
(6.76525 0.0378215 0)
(6.65764 -0.0545772 0)
(6.91745 -0.104487 0)
(7.21414 -0.024 0)
(6.92944 -0.0701765 0)
(8.20969 -0.100829 0)
(7.02388 0.0300566 0)
(8.15477 -0.290252 0)
(9.07703 -0.21592 0)
(8.46676 0.179368 0)
(8.28542 -0.581495 0)
(11.6773 -1.15532 0)
(11.7822 0.269917 0)
(10.7647 -0.515887 0)
(10.2684 0.895851 0)
(10.754 0.852147 0)
(10.6397 0.53578 0)
(10.1747 0.345847 0)
(9.91102 0.109674 0)
(9.54531 -0.0449552 0)
(10.0202 -0.205306 0)
(9.70256 -0.00345538 0)
(10.0329 -0.195158 0)
(11.0505 -0.26484 0)
(9.20637 0.213703 0)
(11.5226 -0.656716 0)
(11.6627 -0.470387 0)
(10.038 0.422588 0)
(12.1315 -1.03194 0)
(13.891 -1.59126 0)
(11.0496 -0.198032 0)
(13.4807 -1.15452 0)
(10.2114 0.588109 0)
(10.7301 0.735095 0)
(11.02 0.554959 0)
(11.112 0.378001 0)
(10.9378 0.177021 0)
(10.8221 -0.0851221 0)
(10.728 -0.145172 0)
(10.6277 -0.0025247 0)
(11.4088 -0.463178 0)
(10.1815 0.124525 0)
(11.6575 -0.100734 0)
(11.8199 -0.990322 0)
(10.0256 0.112183 0)
(12.0535 0.236779 0)
(13.5807 -1.68816 0)
(10.9341 -1.10991 0)
(11.2925 -0.0281639 0)
(13.8718 -2.45238 0)
(9.8905 0.601824 0)
(10.4408 0.704774 0)
(10.9146 0.485247 0)
(11.1647 0.331566 0)
(11.0827 0.109315 0)
(10.8559 -0.0252312 0)
(10.7401 -0.116744 0)
(10.9405 -0.304069 0)
(10.7535 0.167393 0)
(11.1249 -0.653018 0)
(11.2276 -0.265647 0)
(11.0058 0.109612 0)
(11.6505 -0.882829 0)
(12.0079 -1.11339 0)
(11.7003 -0.465464 0)
(11.8286 -0.52723 0)
(13.0116 -2.01903 0)
(13.5969 -3.03643 0)
(10.1804 0.339465 0)
(10.4781 0.535965 0)
(10.8328 0.472771 0)
(11.0917 0.356812 0)
(11.0281 0.191391 0)
(10.7906 0.0231689 0)
(10.8488 -0.175536 0)
(10.714 0.0488435 0)
(11.006 -0.518141 0)
(11.0406 -0.135363 0)
(10.8391 0.00906669 0)
(11.4172 -1.18745 0)
(11.6195 -0.541955 0)
(11.2699 0.228864 0)
(11.6695 -1.25805 0)
(12.4137 -2.45798 0)
(12.5704 -1.6763 0)
(11.7273 -0.593663 0)
(9.93224 0.275829 0)
(10.1851 0.45991 0)
(10.6301 0.374582 0)
(10.924 0.260817 0)
(10.8202 0.13192 0)
(10.6428 -0.010555 0)
(10.6195 -0.0330865 0)
(10.7335 -0.324881 0)
(10.8864 -0.0292625 0)
(10.787 -0.465908 0)
(11.1316 -0.62322 0)
(11.2728 -0.165086 0)
(11.0489 -0.702855 0)
(11.4845 -1.34893 0)
(12.0529 -1.09693 0)
(11.7541 -0.880746 0)
(11.3125 -1.20051 0)
(11.8368 -2.70414 0)
(10.1622 0.246903 0)
(10.2585 0.335799 0)
(10.5843 0.36462 0)
(10.8056 0.312845 0)
(10.6973 0.180556 0)
(10.5137 0.0398843 0)
(10.5768 -0.142862 0)
(10.6651 -0.140976 0)
(10.7892 -0.369768 0)
(10.9118 -0.416239 0)
(10.9436 -0.302051 0)
(11.0511 -0.835915 0)
(11.3386 -0.897179 0)
(11.4249 -0.584422 0)
(11.3825 -1.0892 0)
(11.4513 -1.89887 0)
(11.9803 -2.27364 0)
(12.244 -1.99555 0)
(10.1629 0.0718612 0)
(10.2266 0.280466 0)
(10.4592 0.322967 0)
(10.7009 0.278475 0)
(10.6592 0.169055 0)
(10.5494 0.0112844 0)
(10.6056 -0.0848437 0)
(10.6949 -0.269907 0)
(10.8284 -0.274735 0)
(10.8107 -0.428518 0)
(10.9259 -0.647446 0)
(11.1247 -0.583273 0)
(11.112 -0.745428 0)
(11.1345 -1.22044 0)
(11.4798 -1.33387 0)
(11.7032 -1.43192 0)
(11.3748 -1.5192 0)
(10.7923 -1.58396 0)
(10.265 0.0418524 0)
(10.0255 0.233734 0)
(10.2407 0.296244 0)
(10.5474 0.248726 0)
(10.5522 0.128498 0)
(10.4507 -0.00378388 0)
(10.5225 -0.151021 0)
(10.6353 -0.252261 0)
(10.7301 -0.36586 0)
(10.7832 -0.523414 0)
(10.8836 -0.529857 0)
(10.9143 -0.766498 0)
(11.0597 -1.01056 0)
(11.2214 -0.988366 0)
(11.2141 -1.20444 0)
(11.1251 -1.61434 0)
(11.1035 -2.00978 0)
(11.6694 -2.93371 0)
(10.1615 0.189579 0)
(10.0532 0.25928 0)
(10.2799 0.243003 0)
(10.5629 0.189216 0)
(10.5375 0.104872 0)
(10.4251 -0.0137972 0)
(10.4858 -0.129379 0)
(10.5883 -0.273153 0)
(10.6912 -0.389677 0)
(10.7113 -0.506549 0)
(10.7778 -0.670813 0)
(10.8776 -0.806216 0)
(10.9533 -0.899562 0)
(10.9595 -1.17806 0)
(11.0241 -1.41365 0)
(11.1455 -1.61788 0)
(11.2492 -1.77396 0)
(10.9171 -1.46998 0)
(10.07 0.0896892 0)
(10.0168 0.168687 0)
(10.1533 0.210848 0)
(10.324 0.180062 0)
(10.2419 0.0828165 0)
(10.1466 -0.0559183 0)
(10.2598 -0.199437 0)
(10.4234 -0.340639 0)
(10.5513 -0.459081 0)
(10.595 -0.599606 0)
(10.6839 -0.709254 0)
(10.7326 -0.84916 0)
(10.7912 -1.03448 0)
(10.8661 -1.19349 0)
(10.8822 -1.34095 0)
(10.8519 -1.56697 0)
(10.7263 -1.856 0)
(10.7477 -2.41325 0)
(9.97965 0.07139 0)
(9.89093 0.171612 0)
(10.0713 0.208367 0)
(10.2958 0.158338 0)
(10.26 0.0507725 0)
(10.1858 -0.0934902 0)
(10.2891 -0.239425 0)
(10.4272 -0.383099 0)
(10.5238 -0.511346 0)
(10.5392 -0.638026 0)
(10.5891 -0.763063 0)
(10.6235 -0.909422 0)
(10.6671 -1.03832 0)
(10.6793 -1.21101 0)
(10.6639 -1.40016 0)
(10.6618 -1.59613 0)
(10.6713 -1.75956 0)
(10.5659 -1.83729 0)
(10.0003 0.105518 0)
(9.78749 0.104272 0)
(9.94868 0.129925 0)
(10.1657 0.107671 0)
(10.1173 -0.00240175 0)
(10.0398 -0.162847 0)
(10.1498 -0.320728 0)
(10.3013 -0.463054 0)
(10.4 -0.58317 0)
(10.4155 -0.702052 0)
(10.4595 -0.814026 0)
(10.479 -0.939751 0)
(10.4992 -1.06963 0)
(10.5032 -1.22384 0)
(10.4784 -1.36717 0)
(10.4414 -1.52852 0)
(10.3713 -1.70429 0)
(10.2929 -1.91868 0)
(9.96837 0.0588593 0)
(9.78689 0.118382 0)
(9.99683 0.106019 0)
(10.3075 0.0608904 0)
(10.3182 -0.0579898 0)
(10.24 -0.219513 0)
(10.2985 -0.374832 0)
(10.3822 -0.511739 0)
(10.4119 -0.626796 0)
(10.3752 -0.735394 0)
(10.3718 -0.837612 0)
(10.3576 -0.952224 0)
(10.3515 -1.06421 0)
(10.3278 -1.19529 0)
(10.2809 -1.32355 0)
(10.2328 -1.46301 0)
(10.1703 -1.59569 0)
(10.0822 -1.7255 0)
(9.99696 0.0911503 0)
(9.85081 -0.00993773 0)
(10.0339 -0.0924232 0)
(10.3092 -0.122656 0)
(10.2815 -0.166141 0)
(10.1695 -0.244925 0)
(10.2029 -0.349438 0)
(10.2729 -0.46925 0)
(10.2893 -0.587193 0)
(10.2455 -0.70202 0)
(10.2294 -0.807893 0)
(10.2044 -0.916904 0)
(10.1839 -1.02026 0)
(10.1463 -1.1348 0)
(10.0908 -1.24061 0)
(10.0324 -1.35343 0)
(9.95829 -1.46204 0)
(9.86836 -1.57405 0)
(10.0185 0.102129 0)
(9.7773 -0.0755088 0)
(9.8979 -0.127309 0)
(10.0662 -0.131718 0)
(9.95734 -0.178904 0)
(9.85055 -0.277544 0)
(9.9313 -0.398415 0)
(10.0485 -0.519355 0)
(10.0959 -0.625539 0)
(10.0756 -0.719976 0)
(10.0655 -0.802906 0)
(10.0421 -0.886828 0)
(10.0165 -0.966107 0)
(9.97154 -1.0535 0)
(9.91076 -1.13405 0)
(9.84653 -1.22076 0)
(9.76979 -1.30251 0)
(9.68063 -1.38518 0)
(9.96967 -0.0115822 0)
(9.74552 -0.0744032 0)
(9.83661 -0.0724473 0)
(9.99837 -0.114305 0)
(9.94164 -0.214422 0)
(9.87234 -0.341505 0)
(9.95298 -0.461109 0)
(10.0513 -0.560469 0)
(10.0699 -0.638463 0)
(10.0246 -0.704676 0)
(9.98762 -0.762279 0)
(9.94505 -0.821399 0)
(9.90172 -0.878074 0)
(9.84304 -0.941712 0)
(9.77385 -1.0003 0)
(9.70257 -1.06413 0)
(9.62206 -1.12386 0)
(9.53295 -1.18473 0)
(10.0193 -0.0515555 0)
(9.80723 -0.0128533 0)
(9.88312 -0.0840592 0)
(10.015 -0.199487 0)
(9.90664 -0.323678 0)
(9.80566 -0.435337 0)
(9.87646 -0.518043 0)
(9.97297 -0.576125 0)
(9.98896 -0.619436 0)
(9.94404 -0.658466 0)
(9.90348 -0.694648 0)
(9.85858 -0.734326 0)
(9.80972 -0.773581 0)
(9.74615 -0.819077 0)
(9.67394 -0.861037 0)
(9.59935 -0.907843 0)
(9.51737 -0.951473 0)
(9.42914 -0.996353 0)
(9.80914 -0.0772184 0)
(9.67945 -0.0181177 0)
(9.93974 -0.0406472 0)
(10.2486 -0.138042 0)
(10.1958 -0.281381 0)
(10.0511 -0.422778 0)
(10.0482 -0.523329 0)
(10.0782 -0.578982 0)
(10.0403 -0.605667 0)
(9.95794 -0.622277 0)
(9.88974 -0.636364 0)
(9.82757 -0.655514 0)
(9.76518 -0.677132 0)
(9.69231 -0.706085 0)
(9.61412 -0.733969 0)
(9.53469 -0.767189 0)
(9.45016 -0.798557 0)
(9.36142 -0.831701 0)
(9.91126 -0.262179 0)
(9.74693 -0.321191 0)
(9.98642 -0.324036 0)
(10.3266 -0.335537 0)
(10.3194 -0.36173 0)
(10.1896 -0.398106 0)
(10.1694 -0.437266 0)
(10.1687 -0.470984 0)
(10.0971 -0.495928 0)
(9.98676 -0.515655 0)
(9.89535 -0.531658 0)
(9.81737 -0.549256 0)
(9.74236 -0.566955 0)
(9.66073 -0.589407 0)
(9.57685 -0.610338 0)
(9.493 -0.63545 0)
(9.4059 -0.658984 0)
(9.31612 -0.684216 0)
(9.97005 -0.194541 0)
(9.85891 -0.345037 0)
(10.0349 -0.368558 0)
(10.2446 -0.360797 0)
(10.1481 -0.35942 0)
(10.0016 -0.369212 0)
(10.0111 -0.387835 0)
(10.0536 -0.407558 0)
(10.0192 -0.423068 0)
(9.93571 -0.435173 0)
(9.85897 -0.4446 0)
(9.78863 -0.455704 0)
(9.71543 -0.46729 0)
(9.63359 -0.48296 0)
(9.54885 -0.497557 0)
(9.46338 -0.515911 0)
(9.37509 -0.533253 0)
(9.28473 -0.552294 0)
(10.2757 -0.345034 0)
(10.1135 -0.398669 0)
(10.1764 -0.404076 0)
(10.3377 -0.396061 0)
(10.2397 -0.38748 0)
(10.0911 -0.386717 0)
(10.0859 -0.390873 0)
(10.1097 -0.39224 0)
(10.0574 -0.388376 0)
(9.95961 -0.38244 0)
(9.87036 -0.377097 0)
(9.79079 -0.376479 0)
(9.71004 -0.379271 0)
(9.62294 -0.387337 0)
(9.53458 -0.39566 0)
(9.44606 -0.407877 0)
(9.35578 -0.419886 0)
(9.26422 -0.433732 0)
(10.0197 -0.217624 0)
(9.89196 -0.320944 0)
(10.123 -0.355475 0)
(10.4205 -0.349579 0)
(10.3775 -0.332999 0)
(10.22 -0.321254 0)
(10.1792 -0.318239 0)
(10.1697 -0.315943 0)
(10.0936 -0.30981 0)
(9.98065 -0.301297 0)
(9.8805 -0.293682 0)
(9.79355 -0.290604 0)
(9.70716 -0.2911 0)
(9.61652 -0.29598 0)
(9.52587 -0.300867 0)
(9.43523 -0.308786 0)
(9.34342 -0.316689 0)
(9.25074 -0.326208 0)
(10.114 -0.271622 0)
(10.105 -0.458426 0)
(10.359 -0.520489 0)
(10.6444 -0.485223 0)
(10.5723 -0.400605 0)
(10.3626 -0.323862 0)
(10.2674 -0.285686 0)
(10.2206 -0.269126 0)
(10.1235 -0.254462 0)
(9.99896 -0.237611 0)
(9.89039 -0.223699 0)
(9.79751 -0.21583 0)
(9.70675 -0.213151 0)
(9.61369 -0.214438 0)
(9.52166 -0.21597 0)
(9.4296 -0.22009 0)
(9.33666 -0.224035 0)
(9.24288 -0.229115 0)
(9.96991 -0.295581 0)
(10.0638 -0.479192 0)
(10.4622 -0.507243 0)
(10.8542 -0.449069 0)
(10.8296 -0.332399 0)
(10.5883 -0.220921 0)
(10.4217 -0.170175 0)
(10.3156 -0.163665 0)
(10.1824 -0.162131 0)
(10.0355 -0.152668 0)
(9.91099 -0.143942 0)
(9.80757 -0.138611 0)
(9.71047 -0.138106 0)
(9.61452 -0.138622 0)
(9.52084 -0.138416 0)
(9.42776 -0.140291 0)
(9.33448 -0.141163 0)
(9.23974 -0.141722 0)
(10.0913 -0.431653 0)
(10.3346 -0.697034 0)
(10.7249 -0.708498 0)
(11.0246 -0.57397 0)
(10.9116 -0.351194 0)
(10.6 -0.166686 0)
(10.3867 -0.0956484 0)
(10.2695 -0.0949971 0)
(10.1499 -0.0996078 0)
(10.018 -0.0901336 0)
(9.90106 -0.0810793 0)
(9.80053 -0.0750407 0)
(9.70478 -0.0753503 0)
(9.61105 -0.0740735 0)
(9.51808 -0.072802 0)
(9.42535 -0.0723354 0)
(9.33353 -0.0698046 0)
(9.23908 -0.0662339 0)
(10.2166 -0.39374 0)
(10.6336 -0.730028 0)
(10.8632 -0.677189 0)
(10.9166 -0.519933 0)
(10.7064 -0.258991 0)
(10.4109 -0.0304889 0)
(10.2181 0.0305778 0)
(10.1077 0.00415419 0)
(9.99629 -0.0144616 0)
(9.87499 -0.0109841 0)
(9.76464 -0.00748682 0)
(9.67262 -0.00329749 0)
(9.58484 -0.00887031 0)
(9.5014 -0.00402386 0)
(9.42049 -0.00497461 0)
(9.33534 -0.00336055 0)
(9.25651 0.00291827 0)
(9.16871 0.0134903 0)
(10.1498 -0.802584 0)
(10.0135 -0.970613 0)
(9.49993 -0.762973 0)
(8.85695 -0.522198 0)
(8.32584 -0.233574 0)
(8.06869 -0.0065654 0)
(8.0385 0.0570823 0)
(8.08554 0.0331309 0)
(8.09982 0.012814 0)
(8.08658 0.0151286 0)
(8.07083 0.0184039 0)
(8.06426 0.0224276 0)
(8.06069 0.0173337 0)
(8.03912 0.0227444 0)
(8.05087 0.0212085 0)
(8.00676 0.0248231 0)
(8.03241 0.0296871 0)
(7.97596 0.0368567 0)
(8.58168 -0.326613 0)
(6.34111 -0.320115 0)
(4.68256 -0.145699 0)
(3.58353 -0.04081 0)
(3.04762 0.0219945 0)
(2.95207 0.0410657 0)
(3.04297 0.0276081 0)
(3.12873 0.00779918 0)
(3.16057 0.00216291 0)
(3.17662 0.00758516 0)
(3.20024 0.0118782 0)
(3.2322 0.013642 0)
(3.26628 0.0143282 0)
(3.29116 0.017087 0)
(3.34219 0.016775 0)
(3.34457 0.0243529 0)
(3.43455 0.0138184 0)
(3.38678 0.0414115 0)
(0.0367209 -0.0815906 0)
(0.119105 -0.0891739 0)
(0.204377 -0.0898605 0)
(0.291117 -0.0900519 0)
(0.378738 -0.0901622 0)
(0.467156 -0.0902208 0)
(0.55635 -0.0902272 -8.51738e-21)
(0.64628 -0.0901756 8.44104e-21)
(0.736897 -0.090059 0)
(0.828141 -0.0898712 8.28545e-21)
(0.919946 -0.0896061 0)
(1.01224 -0.0892561 0)
(1.10493 -0.0888123 0)
(1.19794 -0.0882667 -7.96652e-21)
(1.29114 -0.0876156 0)
(1.38444 -0.0868561 0)
(1.4777 -0.085982 7.72507e-21)
(1.57082 -0.0849897 0)
(1.66366 -0.0838847 0)
(1.7561 -0.0826711 0)
(1.84794 -0.0813407 -7.4071e-21)
(1.93911 -0.0798904 0)
(2.02949 -0.0783394 -7.2518e-21)
(2.11893 -0.0767031 0)
(2.20724 -0.0749732 0)
(2.29433 -0.0731446 -7.02519e-21)
(2.38017 -0.0712424 0)
(2.46458 -0.0692947 6.87889e-21)
(2.54738 -0.0672942 0)
(2.62854 -0.0652197 -6.73659e-21)
(2.7081 -0.0630973 0)
(2.78586 -0.060981 0)
(2.86165 -0.0588646 0)
(2.93553 -0.0567038 0)
(3.00757 -0.0545197 0)
(3.0776 -0.0523766 6.33323e-21)
(3.14549 -0.0502729 0)
(3.21133 -0.0481591 -1.24119e-20)
(3.27521 -0.046047 0)
(3.33701 -0.0439962 1.21638e-20)
(3.39664 -0.042009 0)
(3.45422 -0.0400397 0)
(3.50983 -0.0380909 -1.18022e-20)
(3.56339 -0.0362109 0)
(3.61487 -0.0344083 -1.15673e-20)
(3.66437 -0.0326457 1.14516e-20)
(3.712 -0.0309136 0)
(3.75771 -0.0292476 1.12231e-20)
(3.80147 -0.0276627 1.11102e-20)
(3.84339 -0.0261317 0)
(3.88357 -0.0246369 0)
(3.92202 -0.0231979 0)
(3.95871 -0.0218347 0)
(3.99372 -0.0205338 0)
(4.02715 -0.019274 -1.04497e-20)
(4.05905 -0.0180601 0)
(4.08941 -0.0169092 1.02349e-20)
(4.11826 -0.0158199 0)
(4.14571 -0.0147753 0)
(4.17181 -0.0137702 -9.91713e-21)
(4.19659 -0.0128148 0)
(4.22006 -0.0119142 9.70794e-21)
(4.24228 -0.0110586 0)
(4.26334 -0.010238 0)
(4.28327 -0.00945504 0)
(4.30207 -0.00871649 -9.2955e-21)
(4.3198 -0.00802061 0)
(4.33651 -0.00735803 0)
(4.35226 -0.00672462 -8.99116e-21)
(4.36707 -0.00612473 0)
(4.38097 -0.00556086 -8.79058e-21)
(4.39399 -0.00502817 0)
(4.40618 -0.00452014 0)
(4.41759 -0.00403647 0)
(4.42823 -0.00358104 8.39496e-21)
(4.43813 -0.00315349 0)
(4.44732 -0.00274809 0)
(4.45586 -0.0023604 8.10312e-21)
(4.46375 -0.00199215 8.00678e-21)
(4.47102 -0.00164618 0)
(4.4777 -0.00132052 7.8155e-21)
(4.48381 -0.00100935 0)
(4.48941 -0.000708426 1.52524e-20)
(4.49449 -0.000419252 0)
(4.49908 -0.000146458 1.48776e-20)
(4.50322 0.000103041 0)
(4.50691 0.000294626 -1.45068e-20)
(4.51016 0.000472826 0)
(4.513 0.000640661 0)
(4.51544 0.000795503 0)
(4.5175 0.000936699 1.3777e-20)
(4.5192 0.00107169 0)
(4.52058 0.00120245 -1.34181e-20)
(4.52164 0.00132893 0)
(4.52239 0.00144533 1.30632e-20)
(4.52283 0.00155169 1.28873e-20)
(4.523 0.00165159 1.27124e-20)
(4.5229 0.00174766 0)
(4.52255 0.0018404 0)
(4.52196 0.00192797 0)
(4.52112 0.00200864 0)
(4.52005 0.00208253 0)
(4.51877 0.00215157 0)
(4.51729 0.00221782 0)
(4.51562 0.00228166 0)
(4.51376 0.0023415 -1.11843e-20)
(4.51172 0.00239618 -1.10197e-20)
(4.50949 0.00244631 0)
(4.50709 0.00249314 0)
(4.50455 0.00253798 0)
(4.50185 0.00258107 -1.0371e-20)
(4.49901 0.00262153 0)
(4.49603 0.00265885 0)
(4.4929 0.00269326 0)
(4.48963 0.00272541 0)
(4.48625 0.00275591 9.58274e-21)
(4.48274 0.00278509 0)
(4.47911 0.00281273 0)
(4.47537 0.0028388 -9.12154e-21)
(4.47151 0.00286337 8.96975e-21)
(4.46754 0.00288638 0)
(4.46346 0.00290788 8.66903e-21)
(4.45928 0.00292786 0)
(4.455 0.00294671 -8.37206e-21)
(4.45062 0.00296482 0)
(4.44614 0.00298236 0)
(4.44158 0.00299921 0)
(4.43692 0.00301505 0)
(4.43216 0.00302979 0)
(4.42731 0.00304365 1.50068e-20)
(4.42237 0.00305701 1.47236e-20)
(4.41734 0.00307002 0)
(4.41223 0.00308282 0)
(4.40703 0.00309536 0)
(4.40174 0.00310731 -1.36082e-20)
(4.39637 0.00311864 0)
(4.39091 0.00312952 0)
(4.38536 0.00314024 0)
(4.37972 0.00315104 -1.25201e-20)
(4.374 0.00316183 1.22522e-20)
(4.3682 0.00317224 0)
(4.36231 0.0031821 0)
(4.35633 0.00319153 1.14583e-20)
(4.35027 0.00320072 1.11968e-20)
(4.34411 0.00320986 0)
(4.33787 0.00321919 0)
(4.33154 0.00322876 -1.04218e-20)
(4.32512 0.00323835 1.01665e-20)
(4.31861 0.00324779 0)
(4.312 0.0032569 0)
(4.3053 0.00326588 9.40945e-21)
(4.2985 0.00327487 0)
(4.29161 0.00328421 0)
(4.2846 0.00329407 8.66535e-21)
(4.2775 0.00330434 0)
(4.27029 0.00331534 8.17616e-21)
(4.26297 0.00332696 0)
(4.25552 0.00333924 0)
(4.24795 0.00335273 0)
(4.24024 0.00336748 -7.21333e-21)
(4.23238 0.0033842 0)
(4.22435 0.00340344 0)
(4.21614 0.0034255 0)
(4.20773 0.0034513 0)
(4.19908 0.00348213 0)
(4.19016 0.00351872 0)
(4.18091 0.00356305 -5.57114e-21)
(4.17126 0.00361839 -5.33962e-21)
(4.16113 0.00368737 0)
(4.15039 0.00377713 0)
(4.13889 0.00389382 0)
(4.12635 0.00405109 4.41316e-21)
(4.11251 0.00427319 0)
(4.09657 0.0045568 -7.88411e-21)
(4.07858 0.00514428 7.4011e-21)
(4.05433 0.0053121 6.90339e-21)
(4.02927 0.00863039 -6.38454e-21)
(3.97772 0.00465128 5.82006e-21)
(3.93835 0.0344504 -5.23331e-21)
(3.78222 0.0196757 0)
(0.0350738 -0.246105 0)
(0.120317 -0.272707 0)
(0.206528 -0.274933 1.76782e-20)
(0.294746 -0.275535 0)
(0.383905 -0.275935 -1.73879e-20)
(0.473898 -0.276219 -1.72384e-20)
(0.564725 -0.276378 -8.56821e-21)
(0.656365 -0.276394 -8.44189e-21)
(0.748777 -0.276244 0)
(0.841905 -0.275906 -8.28653e-21)
(0.935695 -0.275354 0)
(1.03008 -0.274563 0)
(1.125 -0.273511 1.61344e-20)
(1.22033 -0.272177 7.96816e-21)
(1.31599 -0.270542 -1.5809e-20)
(1.41186 -0.268593 -1.56463e-20)
(1.50784 -0.266318 -7.72721e-21)
(1.60378 -0.263705 0)
(1.69958 -0.260751 0)
(1.7951 -0.257457 0)
(1.8902 -0.253831 -7.43216e-21)
(1.98472 -0.249884 0)
(2.07856 -0.245623 2.17844e-20)
(2.17159 -0.24106 0)
(2.26366 -0.236219 0)
(2.35464 -0.231137 7.02903e-21)
(2.44442 -0.225823 0)
(2.53291 -0.220282 -6.8831e-21)
(2.61997 -0.214558 -1.36361e-20)
(2.70554 -0.208701 6.74116e-21)
(2.78952 -0.202724 0)
(2.87179 -0.196632 0)
(2.95229 -0.190457 0)
(3.03104 -0.184239 -1.2948e-20)
(3.10796 -0.178008 -1.28163e-20)
(3.18291 -0.171779 -6.33879e-21)
(3.25588 -0.165559 0)
(3.32697 -0.15937 1.24236e-20)
(3.39611 -0.153253 0)
(3.46316 -0.147226 -1.2176e-20)
(3.52818 -0.141275 0)
(3.59127 -0.135407 0)
(3.65242 -0.129668 1.18151e-20)
(3.71151 -0.12408 0)
(3.76857 -0.118616 3.47545e-20)
(3.82376 -0.113262 -1.1465e-20)
(3.87709 -0.108058 0)
(3.92848 -0.103036 -1.12369e-20)
(3.97794 -0.098174 -1.11241e-20)
(4.02561 -0.0934383 0)
(4.07156 -0.0888477 0)
(4.11575 -0.0844412 0)
(4.15816 -0.0802131 0)
(4.1989 -0.076125 0)
(4.23807 -0.0721687 1.04641e-20)
(4.27568 -0.0683752 2.07219e-20)
(4.31171 -0.0647587 -1.02495e-20)
(4.34621 -0.0612923 0)
(4.37928 -0.0579491 2.00823e-20)
(4.41099 -0.0547387 -9.93959e-21)
(4.44132 -0.0516833 0)
(4.4703 -0.0487771 -9.72249e-21)
(4.49801 -0.0459932 0)
(4.52451 -0.0433203 0)
(4.54984 -0.0407711 -1.88314e-20)
(4.574 -0.0383546 9.30994e-21)
(4.59703 -0.0360578 -1.84222e-20)
(4.61902 -0.0338617 1.8219e-20)
(4.63999 -0.0317635 9.00545e-21)
(4.65998 -0.029772 0)
(4.679 -0.0278875 8.80474e-21)
(4.6971 -0.0260968 0)
(4.71434 -0.0243883 0)
(4.73074 -0.0227628 0)
(4.74633 -0.0212254 8.41363e-21)
(4.76114 -0.0197721 0)
(4.77521 -0.0183917 1.64317e-20)
(4.78857 -0.0170777 -2.43545e-20)
(4.80126 -0.0158326 -8.02025e-21)
(4.81328 -0.0146583 0)
(4.82467 -0.0135482 -7.82877e-21)
(4.83548 -0.0124917 0)
(4.84573 -0.0114838 -1.52785e-20)
(4.85544 -0.0105288 0)
(4.86461 -0.00963245 -1.49033e-20)
(4.87326 -0.00879739 2.94409e-20)
(4.88144 -0.00803977 1.4532e-20)
(4.8892 -0.00732642 0)
(4.89653 -0.00665375 0)
(4.90345 -0.00602421 0)
(4.90997 -0.00543468 -1.38013e-20)
(4.91611 -0.00488213 0)
(4.92191 -0.00435707 1.34418e-20)
(4.92739 -0.00385885 0)
(4.93253 -0.0033943 -3.92646e-20)
(4.93737 -0.00296192 -1.29104e-20)
(4.94192 -0.00255506 -1.27352e-20)
(4.9462 -0.00216892 0)
(4.95024 -0.00180246 0)
(4.95403 -0.00145827 0)
(4.95759 -0.00113869 0)
(4.96091 -0.000842283 0)
(4.96403 -0.000564374 -2.34159e-20)
(4.96696 -0.000300688 -2.30799e-20)
(4.96971 -5.05892e-05 0)
(4.97229 0.000183514 1.1205e-20)
(4.97469 0.000399812 1.104e-20)
(4.97694 0.000599461 0)
(4.97903 0.000785755 2.14303e-20)
(4.98099 0.000961801 0)
(4.98282 0.00112862 -1.03941e-20)
(4.98454 0.00128521 0)
(4.98613 0.00143051 0)
(4.98761 0.00156473 1.98312e-20)
(4.98899 0.00168914 0)
(4.99027 0.00180538 -9.60101e-21)
(4.99145 0.00191473 0)
(4.99256 0.0020178 0)
(4.99358 0.00211483 -9.14242e-21)
(4.99453 0.00220581 -8.98711e-21)
(4.99541 0.0022903 0)
(4.99622 0.00236802 8.68912e-21)
(4.99696 0.00243929 0)
(4.99764 0.00250534 -8.39163e-21)
(4.99827 0.00256772 -1.64855e-20)
(4.99884 0.00262741 0)
(4.99938 0.00268425 0)
(4.99987 0.00273751 0)
(5.00031 0.00278662 0)
(5.00071 0.0028316 -1.50372e-20)
(5.00106 0.00287323 -4.42662e-20)
(5.00139 0.00291265 0)
(5.00168 0.00295083 0)
(5.00194 0.00298798 0)
(5.00218 0.00302352 1.36363e-20)
(5.00238 0.00305664 0)
(5.00256 0.00308704 0)
(5.0027 0.00311534 -2.56385e-20)
(5.00282 0.00314265 -1.25519e-20)
(5.00292 0.00316959 -1.22782e-20)
(5.003 0.00319597 0)
(5.00305 0.0032214 0)
(5.00309 0.00324561 -1.1483e-20)
(5.0031 0.0032683 1.12263e-20)
(5.00309 0.00328956 0)
(5.00306 0.00331047 0)
(5.00301 0.00333208 1.04448e-20)
(5.00294 0.00335434 -3.05722e-20)
(5.00286 0.00337698 0)
(5.00275 0.00339996 0)
(5.00262 0.00342302 -9.43075e-21)
(5.00247 0.00344596 0)
(5.00229 0.00346939 -1.78697e-20)
(5.00209 0.0034943 8.69013e-21)
(5.00185 0.00352128 0)
(5.00159 0.00355159 -8.19527e-21)
(5.00129 0.00358585 -1.59091e-20)
(5.00094 0.0036246 0)
(5.00054 0.00366968 0)
(5.00007 0.00372166 7.23066e-21)
(4.99953 0.003783 0)
(4.99888 0.00385696 -1.35158e-20)
(4.99811 0.00394603 0)
(4.9972 0.00405551 0)
(4.99609 0.00419238 0)
(4.99474 0.00436247 0)
(4.99308 0.00457655 5.58518e-21)
(4.99102 0.00485018 5.35318e-21)
(4.98845 0.00519974 0)
(4.98518 0.0056568 0)
(4.98103 0.00625812 0)
(4.97564 0.00706037 -4.42467e-21)
(4.96866 0.00818311 0)
(4.95917 0.00964015 7.90491e-21)
(4.94682 0.0122101 -7.42072e-21)
(4.92829 0.0143745 -6.92175e-21)
(4.90453 0.0243216 -6.43278e-21)
(4.86501 0.0228866 -5.83553e-21)
(4.81759 0.0856509 -5.37479e-21)
(4.74399 0.0743209 0)
(0.0332666 -0.407516 0)
(0.11868 -0.455706 0)
(0.204709 -0.4596 -1.76781e-20)
(0.293026 -0.460609 -1.76271e-20)
(0.38237 -0.46132 1.73879e-20)
(0.472611 -0.461865 1.72384e-20)
(0.563738 -0.462221 -8.41308e-23)
(0.655729 -0.46235 0)
(0.748548 -0.462214 0)
(0.842149 -0.461767 0)
(0.936473 -0.460965 0)
(1.03145 -0.459761 0)
(1.12699 -0.458115 -4.85297e-20)
(1.22299 -0.455993 0)
(1.31934 -0.453362 1.58092e-20)
(1.41594 -0.450193 1.56465e-20)
(1.51265 -0.44646 0)
(1.60934 -0.442156 0)
(1.70589 -0.437285 0)
(1.80213 -0.43184 0)
(1.89788 -0.42582 1.48426e-20)
(1.99304 -0.419252 0)
(2.08752 -0.412167 -1.45299e-20)
(2.18114 -0.404579 0)
(2.27367 -0.39652 0)
(2.36504 -0.388039 0)
(2.45527 -0.379176 -2.79008e-20)
(2.54415 -0.369964 0)
(2.63142 -0.360457 1.3637e-20)
(2.71708 -0.350701 -2.70299e-20)
(2.80125 -0.340725 0)
(2.88371 -0.330582 0)
(2.96423 -0.320336 0)
(3.04286 -0.310016 1.29492e-20)
(3.11971 -0.299643 1.28175e-20)
(3.19465 -0.289269 0)
(3.26751 -0.278949 0)
(3.33835 -0.268704 -2.48919e-20)
(3.40724 -0.258541 -2.46412e-20)
(3.47415 -0.248494 2.43935e-20)
(3.53899 -0.238611 0)
(3.60178 -0.228916 0)
(3.66259 -0.219408 0)
(3.72143 -0.210089 0)
(3.77831 -0.200985 -2.31775e-20)
(3.83322 -0.192129 -2.29644e-20)
(3.88619 -0.183526 2.27343e-20)
(3.93729 -0.175163 0)
(3.98655 -0.167036 0)
(4.03399 -0.159169 0)
(4.07964 -0.151583 0)
(4.12353 -0.144266 -2.16107e-20)
(4.16573 -0.13719 0)
(4.2063 -0.130358 0)
(4.24525 -0.123796 -2.09549e-20)
(4.28261 -0.11751 -2.07264e-20)
(4.31843 -0.111471 0)
(4.35278 -0.105654 4.06212e-20)
(4.38573 -0.100068 -2.00869e-20)
(4.41726 -0.0947348 1.98759e-20)
(4.44742 -0.0896461 0)
(4.47627 -0.0847716 0)
(4.50389 -0.0800948 0)
(4.5303 -0.0756269 0)
(4.55551 -0.071379 1.88363e-20)
(4.57957 -0.0673368 3.72794e-20)
(4.60254 -0.0634746 1.84271e-20)
(4.62448 -0.0597827 -1.8224e-20)
(4.6454 -0.05627 0)
(4.66533 -0.0529397 3.56552e-20)
(4.68431 -0.049777 3.52537e-20)
(4.7024 -0.0467628 3.48542e-20)
(4.71963 -0.0438917 -3.44565e-20)
(4.73602 -0.0411684 0)
(4.7516 -0.0385922 -5.0494e-20)
(4.76641 -0.0361507 0)
(4.78049 -0.0338312 1.64476e-20)
(4.79388 -0.0316301 1.62428e-20)
(4.80658 -0.0295484 0)
(4.81863 -0.0275813 0)
(4.83006 -0.0257178 3.13424e-20)
(4.84092 -0.0239507 0)
(4.85122 -0.0222808 3.05831e-20)
(4.86097 -0.0207115 0)
(4.87019 -0.0192387 -2.98314e-20)
(4.8789 -0.0178487 -5.89093e-20)
(4.88716 -0.0165154 0)
(4.895 -0.0152552 0)
(4.9024 -0.0140713 0)
(4.9094 -0.0129633 -2.79871e-20)
(4.91599 -0.0119209 0)
(4.92223 -0.0109399 -2.72634e-20)
(4.92812 -0.0100123 0)
(4.93369 -0.00913854 0)
(4.93893 -0.008321 5.2381e-20)
(4.94387 -0.00755601 0)
(4.94852 -0.0068361 2.549e-20)
(4.95292 -0.00615632 0)
(4.95707 -0.00551628 2.4795e-20)
(4.96097 -0.00491794 0)
(4.96464 -0.00436105 0)
(4.96808 -0.0038409 0)
(4.97132 -0.00335105 7.02845e-20)
(4.97438 -0.00288807 2.30891e-20)
(4.97727 -0.00245279 0)
(4.97997 -0.0020476 0)
(4.98251 -0.00167277 0)
(4.98489 -0.00132495 0)
(4.98713 -0.000998937 -2.14392e-20)
(4.98923 -0.000691216 4.22381e-20)
(4.99122 -0.000401467 2.07934e-20)
(4.99308 -0.000131089 -4.09543e-20)
(4.99483 0.00011915 -4.03184e-20)
(4.99647 0.000350146 -1.98398e-20)
(4.998 0.000564221 0)
(4.99944 0.000764055 -3.84345e-20)
(5.0008 0.000951601 0)
(5.00208 0.0011277 3.71983e-20)
(5.00328 0.00129262 1.82899e-20)
(5.00441 0.00144611 0)
(5.00546 0.00158762 -3.53731e-20)
(5.00646 0.00171723 -1.73832e-20)
(5.00739 0.00183623 0)
(5.00826 0.00194703 -1.6794e-20)
(5.00909 0.00205193 4.9486e-20)
(5.00987 0.00215192 0)
(5.01061 0.00224637 0)
(5.01131 0.00233389 0)
(5.01197 0.00241349 0)
(5.01259 0.00248543 3.01005e-20)
(5.01317 0.00255149 2.95275e-20)
(5.01373 0.00261409 0)
(5.01426 0.0026749 0)
(5.01477 0.00273388 0)
(5.01525 0.00278946 0)
(5.0157 0.00283981 0)
(5.01613 0.00288463 0)
(5.01654 0.00292551 2.56522e-20)
(5.01693 0.00296457 -4.88764e-24)
(5.01731 0.00300318 0)
(5.01767 0.00304153 0)
(5.01802 0.00307882 2.3516e-20)
(5.01835 0.00311367 0)
(5.01866 0.00314499 -2.24601e-20)
(5.01896 0.00317315 -2.1944e-20)
(5.01925 0.00320044 0)
(5.01953 0.00322906 0)
(5.01979 0.0032592 2.03951e-20)
(5.02005 0.00329043 3.97817e-20)
(5.0203 0.00332285 0)
(5.02053 0.00335569 0)
(5.02074 0.00338762 0)
(5.02094 0.00341962 1.78806e-20)
(5.02112 0.00345417 -1.73863e-20)
(5.02128 0.00349258 0)
(5.02142 0.00353666 -3.28197e-20)
(5.02154 0.00358826 -1.59277e-20)
(5.02162 0.003648 3.08794e-20)
(5.02166 0.00371834 0)
(5.02165 0.00380102 0)
(5.02156 0.00389926 2.80063e-20)
(5.0214 0.00401942 1.35249e-20)
(5.02112 0.00416701 0)
(5.02072 0.00435079 0)
(5.02014 0.00458352 0)
(5.01934 0.0048767 0)
(5.01825 0.00524839 2.23746e-20)
(5.01678 0.00572701 0)
(5.01483 0.00634184 0)
(5.01224 0.0071457 0)
(5.00879 0.00820724 0)
(5.00419 0.00962152 0)
(4.99808 0.0115751 0)
(4.98961 0.0142025 1.5852e-20)
(4.97867 0.0183117 0)
(4.96158 0.023549 0)
(4.94271 0.0354077 2.57361e-20)
(4.907 0.0482742 -1.18477e-20)
(4.87806 0.0980685 1.06303e-20)
(4.82954 0.129416 -9.72976e-21)
(0.0304 -0.564256 0)
(0.116084 -0.63909 3.61022e-20)
(0.201959 -0.64517 0)
(0.290508 -0.64674 1.7627e-20)
(0.380173 -0.647893 0)
(0.470827 -0.648844 0)
(0.562456 -0.649555 -1.74088e-20)
(0.655042 -0.649967 0)
(0.748555 -0.650013 0)
(0.842949 -0.649622 0)
(0.938163 -0.648725 0)
(1.03412 -0.647254 0)
(1.13072 -0.645147 6.49675e-20)
(1.22784 -0.642343 3.22294e-20)
(1.32538 -0.638793 -3.18863e-20)
(1.42321 -0.634459 0)
(1.52117 -0.629307 0)
(1.61907 -0.623317 0)
(1.7168 -0.616493 0)
(1.81423 -0.608843 0)
(1.91117 -0.600368 2.98603e-20)
(2.0074 -0.591097 2.95334e-20)
(2.10283 -0.581075 -2.92106e-20)
(2.19736 -0.570339 2.88923e-20)
(2.29076 -0.55894 0)
(2.38288 -0.546944 0)
(2.47367 -0.534396 2.79008e-20)
(2.56301 -0.521364 0)
(2.65074 -0.507926 0)
(2.73683 -0.494133 2.70299e-20)
(2.82119 -0.480047 2.67979e-20)
(2.90365 -0.465754 2.65178e-20)
(2.98418 -0.451311 0)
(3.06289 -0.436747 0)
(3.13966 -0.422136 -2.57036e-20)
(3.21428 -0.407567 0)
(3.28682 -0.393068 0)
(3.35744 -0.378641 2.4892e-20)
(3.42606 -0.364347 -2.47047e-20)
(3.49248 -0.350276 2.44541e-20)
(3.55677 -0.336443 0)
(3.61912 -0.322824 0)
(3.67954 -0.309447 4.73887e-20)
(3.73787 -0.29639 0)
(3.79411 -0.283681 4.6442e-20)
(3.84843 -0.271288 6.89402e-20)
(3.90093 -0.259199 -6.82481e-20)
(3.95154 -0.24746 4.50555e-20)
(4.0002 -0.236112 0)
(4.04701 -0.22514 0)
(4.09213 -0.214507 4.37026e-20)
(4.13555 -0.204214 2.1611e-20)
(4.17724 -0.194299 0)
(4.21724 -0.184774 0)
(4.25564 -0.175612 2.09552e-20)
(4.29253 -0.16678 4.15093e-20)
(4.32793 -0.15828 0)
(4.36183 -0.150133 -4.06218e-20)
(4.39428 -0.142342 4.0224e-20)
(4.42535 -0.13488 -3.98001e-20)
(4.45512 -0.12772 0)
(4.48361 -0.120858 0)
(4.51084 -0.114307 0)
(4.53685 -0.108064 0)
(4.56169 -0.102108 0)
(4.58543 -0.0964126 -3.72802e-20)
(4.6081 -0.0909721 0)
(4.62973 -0.0857927 0)
(4.65033 -0.0808723 0)
(4.66998 -0.0761927 -7.13287e-20)
(4.6887 -0.0717331 -3.52545e-20)
(4.70655 -0.0674853 -3.4855e-20)
(4.72353 -0.0634505 6.89293e-20)
(4.73969 -0.0596266 -3.40755e-20)
(4.75504 -0.0560009 3.36674e-20)
(4.76965 -0.0525579 0)
(4.78355 -0.0492881 -3.28851e-20)
(4.79675 -0.0461875 0)
(4.80928 -0.043251 0)
(4.82117 -0.0404698 0)
(4.83245 -0.0378357 -6.26969e-20)
(4.84315 -0.0353453 3.09726e-20)
(4.8533 -0.0329961 3.06029e-20)
(4.86291 -0.0307807 6.04325e-20)
(4.87201 -0.0286865 8.95144e-20)
(4.88063 -0.026701 2.94593e-20)
(4.88879 -0.0248179 0)
(4.89651 -0.0230433 5.74549e-20)
(4.90381 -0.0213779 0)
(4.91071 -0.019814 8.39783e-20)
(4.91722 -0.018341 0)
(4.92338 -0.0169472 8.18063e-20)
(4.9292 -0.0156326 0)
(4.93469 -0.0143977 0)
(4.93986 -0.0132401 2.62061e-20)