/*--------------------------------*- C++ -*----------------------------------*\
| =========                 |                                                 |
| \\      /  F ield         | OpenFOAM: The Open Source CFD Toolbox           |
|  \\    /   O peration     | Version:  2.1.x                                 |
|   \\  /    A nd           | Web:      www.OpenFOAM.org                      |
|    \\/     M anipulation  |                                                 |
\*---------------------------------------------------------------------------*/
FoamFile
{
    version     2.0;
    format      ascii;
    class       volVectorField;
    location    "0.001";
    object      UMean;
}
// * * * * * * * * * * * * * * * * * * * * * * * * * * * * * * * * * * * * * //

dimensions      [0 1 -1 0 0 0 0];

internalField   nonuniform List<vector> 
12225
(
(7.25216 0.32572 0)
(5.84431 0.171439 0)
(4.94662 0.0278553 0)
(4.59955 -0.0152545 0)
(4.6283 -0.0213435 0)
(4.76402 -0.0162608 0)
(4.90617 -0.0127881 0)
(5.02004 -0.0108199 0)
(5.11605 -0.0135136 0)
(5.33133 -0.0214785 0)
(5.33639 -0.016564 0)
(5.78054 -0.0228824 0)
(5.82931 -0.055488 0)
(6.20967 0.0068888 0)
(6.92937 -0.183028 0)
(7.07058 0.203173 0)
(8.83083 -1.04781 0)
(10.2828 0.496584 0)
(9.25282 0.666955 0)
(9.60695 0.52488 0)
(9.12616 0.233929 0)
(8.66743 0.0583869 0)
(8.56512 -0.0330042 0)
(8.66786 -0.0577004 0)
(8.84548 -0.0606978 0)
(9.03021 -0.0419909 0)
(9.08199 -0.0779859 0)
(9.6029 -0.0653337 0)
(9.1985 -0.0866989 0)
(10.3803 -0.198469 0)
(9.84271 -0.0420733 0)
(10.9524 -0.377293 0)
(11.0745 -0.245373 0)
(12.5727 -0.638257 0)
(12.7319 -0.94495 0)
(15.2937 -2.03728 0)
(9.34257 0.573231 0)
(10.5299 0.538013 0)
(10.5936 0.272972 0)
(10.3211 0.084601 0)
(10.1922 -0.0367582 0)
(10.1846 -0.0813409 0)
(10.3794 -0.111822 0)
(10.3714 -0.0631232 0)
(10.7186 -0.176529 0)
(10.7233 -0.0852824 0)
(10.9268 -0.199676 0)
(11.4397 -0.293694 0)
(11.3785 -0.203956 0)
(11.9946 -0.429203 0)
(12.5186 -0.631608 0)
(13.14 -0.889133 0)
(13.6149 -1.28016 0)
(15.1174 -3.06894 0)
(9.16449 0.423985 0)
(10.4571 0.468093 0)
(10.7505 0.262392 0)
(10.6336 0.092849 0)
(10.504 -0.0258519 0)
(10.5135 -0.101813 0)
(10.5654 -0.109332 0)
(10.7025 -0.13612 0)
(10.8442 -0.19349 0)
(10.8539 -0.138257 0)
(11.3402 -0.338031 0)
(11.1843 -0.305891 0)
(11.6807 -0.371765 0)
(12.0302 -0.573419 0)
(12.3898 -0.947101 0)
(12.5806 -0.974902 0)
(13.4684 -1.88952 0)
(13.8157 -2.9096 0)
(9.19634 0.330038 0)
(10.3844 0.375749 0)
(10.6963 0.211217 0)
(10.6104 0.0693975 0)
(10.5013 -0.0447203 0)
(10.4947 -0.10119 0)
(10.5777 -0.154943 0)
(10.6937 -0.172581 0)
(10.7812 -0.186362 0)
(10.9847 -0.359286 0)
(11.0875 -0.209283 0)
(11.3524 -0.545681 0)
(11.6165 -0.516599 0)
(11.8951 -0.790283 0)
(12.235 -0.941894 0)
(12.6339 -1.51421 0)
(13.0747 -2.12315 0)
(13.1661 -2.93598 0)
(9.31155 0.260955 0)
(10.3678 0.343785 0)
(10.6515 0.216351 0)
(10.5791 0.0795548 0)
(10.48 -0.0327715 0)
(10.4817 -0.113491 0)
(10.5774 -0.171991 0)
(10.6508 -0.190383 0)
(10.8165 -0.3248 0)
(10.882 -0.254954 0)
(11.0892 -0.490401 0)
(11.3014 -0.552251 0)
(11.4833 -0.623917 0)
(11.735 -0.90086 0)
(12.0763 -1.3004 0)
(12.3221 -1.64807 0)
(12.5032 -2.09385 0)
(12.569 -2.95254 0)
(9.21193 0.169535 0)
(10.2357 0.246473 0)
(10.5205 0.152939 0)
(10.464 0.0432747 0)
(10.3863 -0.0560301 0)
(10.4184 -0.133939 0)
(10.5194 -0.1927 0)
(10.635 -0.275179 0)
(10.7458 -0.28567 0)
(10.8565 -0.471128 0)
(11.0512 -0.458536 0)
(11.1747 -0.652291 0)
(11.3891 -0.84802 0)
(11.6243 -1.06062 0)
(11.8267 -1.32554 0)
(11.9522 -1.77558 0)
(12.1112 -2.33755 0)
(12.1943 -3.04993 0)
(9.24749 0.156183 0)
(10.1992 0.219659 0)
(10.451 0.147189 0)
(10.3955 0.0354404 0)
(10.3327 -0.0718913 0)
(10.3756 -0.158476 0)
(10.4929 -0.238067 0)
(10.5964 -0.292729 0)
(10.714 -0.398656 0)
(10.8222 -0.455182 0)
(10.9606 -0.589033 0)
(11.1187 -0.763907 0)
(11.2975 -0.889175 0)
(11.436 -1.15793 0)
(11.6092 -1.50635 0)
(11.7387 -1.90074 0)
(11.8281 -2.31884 0)
(11.731 -2.82402 0)
(9.28992 0.102389 0)
(10.2039 0.169699 0)
(10.4444 0.114154 0)
(10.3969 0.0159369 0)
(10.3388 -0.0874375 0)
(10.3802 -0.179475 0)
(10.4843 -0.256922 0)
(10.5816 -0.3448 0)
(10.6828 -0.4133 0)
(10.7708 -0.539479 0)
(10.914 -0.648838 0)
(11.0346 -0.793313 0)
(11.1698 -1.01409 0)
(11.3073 -1.26019 0)
(11.4481 -1.52947 0)
(11.4932 -1.91163 0)
(11.4892 -2.32655 0)
(11.4285 -2.84843 0)
(9.23032 0.0670429 0)
(10.1159 0.122186 0)
(10.3668 0.0694137 0)
(10.333 -0.0234578 0)
(10.2848 -0.122146 0)
(10.3327 -0.211738 0)
(10.4422 -0.297649 0)
(10.5382 -0.379568 0)
(10.6301 -0.476256 0)
(10.7175 -0.586126 0)
(10.8306 -0.70607 0)
(10.9298 -0.891893 0)
(11.0602 -1.0699 0)
(11.1427 -1.30539 0)
(11.2172 -1.61207 0)
(11.2462 -1.95875 0)
(11.2525 -2.32392 0)
(11.1702 -2.72015 0)
(9.29981 0.081837 0)
(10.1514 0.0965874 0)
(10.3691 0.0446576 0)
(10.3161 -0.0408066 0)
(10.2584 -0.136395 0)
(10.3014 -0.231111 0)
(10.4039 -0.323074 0)
(10.4925 -0.420635 0)
(10.5736 -0.52054 0)
(10.6431 -0.640283 0)
(10.7389 -0.779388 0)
(10.8192 -0.940894 0)
(10.9052 -1.1352 0)
(10.9572 -1.38192 0)
(11.0117 -1.6353 0)
(11.0045 -1.93958 0)
(10.9512 -2.25629 0)
(10.8035 -2.60506 0)
(9.13291 0.0163831 0)
(9.99002 0.0396796 0)
(10.1973 -0.00722084 0)
(10.1524 -0.0914384 0)
(10.1201 -0.188312 0)
(10.1921 -0.284293 0)
(10.315 -0.378166 0)
(10.413 -0.475167 0)
(10.4899 -0.578714 0)
(10.5508 -0.700297 0)
(10.6273 -0.834718 0)
(10.6804 -1.00156 0)
(10.7423 -1.18894 0)
(10.7659 -1.40435 0)
(10.7751 -1.64441 0)
(10.7358 -1.91979 0)
(10.6726 -2.19618 0)
(10.5668 -2.47796 0)
(9.22146 0.0268214 0)
(10.0387 0.0151832 0)
(10.2314 -0.0455738 0)
(10.1759 -0.131969 0)
(10.1285 -0.228715 0)
(10.1818 -0.326078 0)
(10.2833 -0.421812 0)
(10.3602 -0.521433 0)
(10.4152 -0.62754 0)
(10.4539 -0.748072 0)
(10.5042 -0.883479 0)
(10.5331 -1.04125 0)
(10.5639 -1.2142 0)
(10.5563 -1.41597 0)
(10.5412 -1.62657 0)
(10.4839 -1.85561 0)
(10.404 -2.08025 0)
(10.2655 -2.31498 0)
(9.09512 -0.0143601 0)
(9.93929 -0.0464729 0)
(10.1384 -0.104282 0)
(10.0824 -0.190118 0)
(10.0364 -0.287936 0)
(10.0936 -0.384448 0)
(10.1956 -0.477365 0)
(10.2675 -0.572682 0)
(10.3103 -0.674374 0)
(10.3336 -0.789186 0)
(10.3628 -0.916126 0)
(10.3689 -1.06145 0)
(10.374 -1.21881 0)
(10.3445 -1.39414 0)
(10.3066 -1.57325 0)
(10.2322 -1.76596 0)
(10.143 -1.95205 0)
(10.0177 -2.13884 0)
(9.31467 -0.0186797 0)
(10.1197 -0.0764724 0)
(10.2907 -0.150714 0)
(10.2019 -0.239423 0)
(10.1133 -0.33455 0)
(10.1235 -0.427059 0)
(10.1806 -0.516061 0)
(10.2141 -0.606872 0)
(10.2232 -0.703017 0)
(10.2183 -0.809436 0)
(10.2197 -0.925484 0)
(10.2023 -1.05502 0)
(10.1832 -1.19192 0)
(10.1343 -1.34101 0)
(10.0799 -1.49004 0)
(9.99661 -1.64588 0)
(9.90331 -1.79262 0)
(9.77963 -1.93932 0)
(9.34776 -0.0556602 0)
(10.1232 -0.120579 0)
(10.2744 -0.181146 0)
(10.1651 -0.251133 0)
(10.056 -0.331488 0)
(10.0492 -0.417476 0)
(10.0911 -0.506811 0)
(10.1099 -0.599572 0)
(10.1025 -0.695214 0)
(10.0814 -0.796175 0)
(10.0638 -0.901791 0)
(10.0298 -1.01501 0)
(9.99274 -1.13141 0)
(9.93127 -1.25427 0)
(9.86596 -1.3743 0)
(9.77792 -1.49767 0)
(9.68368 -1.61204 0)
(9.56752 -1.72513 0)
(9.15437 -0.0571343 0)
(9.9319 -0.129536 0)
(10.0725 -0.195729 0)
(9.96286 -0.273877 0)
(9.8746 -0.359485 0)
(9.89345 -0.444521 0)
(9.95092 -0.526732 0)
(9.97463 -0.607398 0)
(9.96368 -0.687809 0)
(9.93526 -0.771 0)
(9.90541 -0.856988 0)
(9.86056 -0.948003 0)
(9.81106 -1.04038 0)
(9.74199 -1.13639 0)
(9.66994 -1.22902 0)
(9.58096 -1.32311 0)
(9.48819 -1.4092 0)
(9.37973 -1.49395 0)
(9.14661 -0.0314045 0)
(9.92489 -0.126191 0)
(10.0672 -0.216762 0)
(9.96317 -0.306742 0)
(9.86968 -0.390586 0)
(9.87124 -0.464312 0)
(9.90576 -0.529796 0)
(9.90678 -0.59155 0)
(9.87455 -0.652787 0)
(9.82831 -0.716439 0)
(9.78171 -0.782401 0)
(9.7247 -0.852039 0)
(9.66388 -0.922327 0)
(9.58896 -0.994824 0)
(9.51215 -1.06421 0)
(9.42345 -1.1343 0)
(9.33252 -1.19792 0)
(9.23087 -1.26053 0)
(9.10015 -0.0730871 0)
(9.88207 -0.16797 0)
(10.0199 -0.265341 0)
(9.90504 -0.346223 0)
(9.80531 -0.411162 0)
(9.80486 -0.463414 0)
(9.83626 -0.508074 0)
(9.832 -0.550921 0)
(9.79279 -0.59511 0)
(9.7398 -0.642404 0)
(9.68559 -0.692056 0)
(9.62298 -0.744674 0)
(9.55625 -0.797737 0)
(9.47872 -0.852396 0)
(9.39954 -0.90454 0)
(9.31184 -0.957205 0)
(9.22265 -1.00478 0)
(9.126 -1.05177 0)
(9.24877 -0.04404 0)
(10.0338 -0.147358 0)
(10.1664 -0.254313 0)
(10.03 -0.341848 0)
(9.89 -0.406765 0)
(9.84779 -0.452011 0)
(9.84558 -0.483994 0)
(9.81624 -0.511033 0)
(9.75825 -0.538769 0)
(9.69198 -0.570095 0)
(9.62746 -0.604671 0)
(9.55812 -0.642732 0)
(9.48562 -0.681976 0)
(9.4054 -0.723026 0)
(9.32402 -0.762438 0)
(9.23672 -0.802536 0)
(9.14841 -0.838772 0)
(9.05492 -0.874836 0)
(9.35351 -0.0863507 0)
(10.1131 -0.195766 0)
(10.2475 -0.266901 0)
(10.111 -0.318401 0)
(9.95753 -0.355983 0)
(9.8926 -0.385195 0)
(9.86668 -0.410245 0)
(9.81708 -0.433985 0)
(9.74289 -0.458171 0)
(9.66471 -0.484222 0)
(9.59104 -0.511951 0)
(9.51571 -0.541858 0)
(9.43833 -0.57238 0)
(9.35575 -0.604196 0)
(9.27249 -0.634665 0)
(9.18522 -0.665762 0)
(9.09726 -0.693849 0)
(9.00571 -0.722011 0)
(9.14658 -0.0644876 0)
(9.96541 -0.185835 0)
(10.1126 -0.25268 0)
(9.98729 -0.292109 0)
(9.85727 -0.316502 0)
(9.8184 -0.33469 0)
(9.81285 -0.351402 0)
(9.77615 -0.368353 0)
(9.70854 -0.386174 0)
(9.63296 -0.405603 0)
(9.55912 -0.426472 0)
(9.48296 -0.449194 0)
(9.40393 -0.472509 0)
(9.32058 -0.496947 0)
(9.23637 -0.520409 0)
(9.14927 -0.544513 0)
(9.0615 -0.566317 0)
(8.97116 -0.588398 0)
(9.21889 -0.13332 0)
(9.99862 -0.23803 0)
(10.1411 -0.294844 0)
(10.0233 -0.313375 0)
(9.89287 -0.315359 0)
(9.84478 -0.31447 0)
(9.82735 -0.31544 0)
(9.78015 -0.319425 0)
(9.70418 -0.326528 0)
(9.62234 -0.336833 0)
(9.54352 -0.349877 0)
(9.46399 -0.365559 0)
(9.38221 -0.382455 0)
(9.29746 -0.40065 0)
(9.21205 -0.418312 0)
(9.12473 -0.436688 0)
(9.03681 -0.453395 0)
(8.94699 -0.47054 0)
(9.13661 -0.0629167 0)
(9.98813 -0.21165 0)
(10.1848 -0.271119 0)
(10.085 -0.279753 0)
(9.94671 -0.26994 0)
(9.88055 -0.26044 0)
(9.84619 -0.256202 0)
(9.78691 -0.256594 0)
(9.70301 -0.260316 0)
(9.61597 -0.266849 0)
(9.53329 -0.275917 0)
(9.45123 -0.287367 0)
(9.36751 -0.299973 0)
(9.28183 -0.313563 0)
(9.1956 -0.326685 0)
(9.10809 -0.340371 0)
(9.01994 -0.352832 0)
(8.93025 -0.365754 0)
(9.1846 -0.167959 0)
(10.0674 -0.321995 0)
(10.2719 -0.345146 0)
(10.164 -0.306826 0)
(10.0058 -0.257913 0)
(9.91624 -0.224718 0)
(9.86388 -0.209097 0)
(9.7937 -0.203486 0)
(9.70358 -0.202473 0)
(9.61267 -0.204521 0)
(9.52705 -0.209541 0)
(9.44303 -0.217077 0)
(9.35791 -0.226036 0)
(9.27169 -0.235693 0)
(9.18498 -0.245003 0)
(9.09734 -0.254564 0)
(9.00899 -0.263164 0)
(8.91915 -0.272129 0)
(9.2189 -0.151751 0)
(10.1657 -0.318613 0)
(10.4074 -0.325286 0)
(10.2982 -0.26498 0)
(10.1114 -0.198394 0)
(9.98363 -0.157047 0)
(9.90042 -0.142518 0)
(9.81175 -0.140707 0)
(9.71162 -0.141514 0)
(9.61476 -0.143242 0)
(9.52516 -0.147036 0)
(9.43871 -0.152459 0)
(9.3522 -0.159227 0)
(9.26554 -0.165843 0)
(9.1786 -0.17226 0)
(9.09109 -0.17827 0)
(9.00272 -0.183274 0)
(8.91258 -0.188232 0)
(9.17535 -0.274392 0)
(10.1924 -0.439601 0)
(10.4474 -0.381216 0)
(10.3242 -0.2608 0)
(10.1202 -0.157883 0)
(9.97832 -0.103423 0)
(9.88864 -0.0889221 0)
(9.80114 -0.0892403 0)
(9.70463 -0.0899907 0)
(9.60984 -0.0901525 0)
(9.52072 -0.0922911 0)
(9.43413 -0.0956122 0)
(9.34761 -0.10053 0)
(9.26128 -0.104391 0)
(9.17462 -0.108702 0)
(9.08779 -0.111418 0)
(8.99993 -0.113091 0)
(8.90964 -0.113728 0)
(9.34723 -0.286218 0)
(10.389 -0.47831 0)
(10.5758 -0.377428 0)
(10.3741 -0.217755 0)
(10.1277 -0.0864468 0)
(9.96506 -0.0281503 0)
(9.86275 -0.0248038 0)
(9.76966 -0.033406 0)
(9.67233 -0.0363646 0)
(9.5782 -0.0367179 0)
(9.48996 -0.0386046 0)
(9.40506 -0.0407074 0)
(9.32046 -0.0448954 0)
(9.23663 -0.0456587 0)
(9.15274 -0.0499799 0)
(9.06852 -0.0489365 0)
(8.98424 -0.0486077 0)
(8.8956 -0.0431789 0)
(9.27387 -0.467387 0)
(10.061 -0.57936 0)
(9.90366 -0.40149 0)
(9.49705 -0.203551 0)
(9.23517 -0.0540016 0)
(9.13847 0.0100758 0)
(9.10791 0.0125371 0)
(9.07376 0.00195726 0)
(9.02414 -0.00193519 0)
(8.97108 -0.00178684 0)
(8.91908 -0.00270807 0)
(8.86781 -0.00320375 0)
(8.81495 -0.00618846 0)
(8.75855 -0.00456964 0)
(8.70819 -0.00837249 0)
(8.64297 -0.00504052 0)
(8.60071 -0.00474578 0)
(8.52288 0.00125995 0)
(8.5576 -0.260672 0)
(7.56817 -0.284746 0)
(6.49562 -0.118622 0)
(5.85505 -0.0160522 0)
(5.68372 0.0237455 0)
(5.71396 0.0258675 0)
(5.77033 0.0169942 0)
(5.8006 0.0121362 0)
(5.81461 0.0124611 0)
(5.82775 0.0141479 0)
(5.84253 0.0149671 0)
(5.85696 0.0154992 0)
(5.87088 0.0156136 0)
(5.8793 0.0172513 0)
(5.90075 0.0155015 0)
(5.88941 0.0216456 0)
(5.94406 0.0129247 0)
(5.87532 0.0342702 0)
(0.0461524 -0.100172 0)
(0.143002 -0.103886 0)
(0.241351 -0.103938 0)
(0.340763 -0.103732 0)
(0.440752 -0.103416 0)
(0.541205 -0.102999 0)
(0.642033 -0.102482 2.01701e-19)
(0.743141 -0.101861 -2.00186e-19)
(0.844424 -0.101137 0)
(0.945776 -0.10031 -1.97165e-19)
(1.04709 -0.0993803 0)
(1.14825 -0.0983476 0)
(1.24915 -0.0972097 0)
(1.34966 -0.095968 1.91164e-19)
(1.44968 -0.0946273 0)
(1.54909 -0.09319 0)
(1.64775 -0.0916567 -1.86696e-19)
(1.74558 -0.0900341 0)
(1.84246 -0.0883321 0)
(1.93825 -0.0865501 0)
(2.03283 -0.0846852 1.80786e-19)
(2.12616 -0.0827516 0)
(2.21814 -0.0807687 1.77852e-19)
(2.30861 -0.0787344 0)
(2.39748 -0.076642 0)
(2.48477 -0.0745103 1.73478e-19)
(2.57037 -0.0723649 0)
(2.65413 -0.070201 -1.70582e-19)
(2.73602 -0.0679992 0)
(2.81611 -0.0657784 1.67703e-19)
(2.89431 -0.0635836 0)
(2.97044 -0.0614128 0)
(3.04454 -0.0592261 0)
(3.11672 -0.0570349 0)
(3.18691 -0.0548932 0)
(3.25496 -0.0528025 -1.59179e-19)
(3.32094 -0.0507193 0)
(3.38497 -0.0486499 3.1276e-19)
(3.447 -0.0466444 0)
(3.50691 -0.0447047 -3.07206e-19)
(3.56481 -0.0427884 0)
(3.62082 -0.0408961 0)
(3.67489 -0.0390735 2.98964e-19)
(3.72696 -0.0373282 0)
(3.77711 -0.035621 2.93531e-19)
(3.82548 -0.03394 -2.90834e-19)
(3.87206 -0.0323212 0)
(3.9168 -0.0307831 -2.8548e-19)
(3.95975 -0.0292969 -2.82823e-19)
(4.00105 -0.027839 0)
(4.04074 -0.0264297 0)
(4.07878 -0.025095 0)
(4.1152 -0.0238234 0)
(4.15011 -0.0225863 0)
(4.18358 -0.0213839 2.67171e-19)
(4.21561 -0.0202396 0)
(4.24621 -0.0191596 -2.62067e-19)
(4.27544 -0.0181242 0)
(4.3034 -0.0171193 0)
(4.33011 -0.0161547 2.5452e-19)
(4.35558 -0.0152441 0)
(4.37985 -0.0143823 -2.49563e-19)
(4.40298 -0.0135535 0)
(4.42504 -0.0127539 0)
(4.44605 -0.0119934 0)
(4.46601 -0.0112771 2.39826e-19)
(4.48498 -0.0105975 0)
(4.50303 -0.00994477 0)
(4.52017 -0.00931941 2.3268e-19)
(4.53644 -0.0087277 0)
(4.55185 -0.00817012 2.2799e-19)
(4.56645 -0.00764019 0)
(4.58029 -0.00713298 0)
(4.59339 -0.00665009 0)
(4.60577 -0.00619418 -2.1879e-19)
(4.61747 -0.00576303 0)
(4.62851 -0.00535201 0)
(4.63893 -0.00496019 -2.12046e-19)
(4.64875 -0.00459079 -2.09827e-19)
(4.65798 -0.00424478 0)
(4.66665 -0.0039176 -2.05434e-19)
(4.67482 -0.00360326 0)
(4.68249 -0.00330069 -4.02196e-19)
(4.68967 -0.0030142 0)
(4.69638 -0.00274683 -3.93641e-19)
(4.70265 -0.00249635 0)
(4.70851 -0.00225933 3.852e-19)
(4.71398 -0.0020341 0)
(4.71907 -0.00182291 0)
(4.72379 -0.00162917 0)
(4.72815 -0.00145226 -3.68657e-19)
(4.73218 -0.00128839 0)
(4.73591 -0.00113345 3.60553e-19)
(4.73934 -0.0009892 0)
(4.74248 -0.000856258 -3.52558e-19)
(4.74533 -0.000732485 -3.48602e-19)
(4.74793 -0.000615149 -3.44672e-19)
(4.75029 -0.000501948 0)
(4.75242 -0.000392778 0)
(4.75433 -0.000289787 0)
(4.75602 -0.00019506 0)
(4.7575 -0.00010854 0)
(4.75879 -2.76237e-05 0)
(4.7599 5.03199e-05 0)
(4.76085 0.000125721 0)
(4.76164 0.000196939 3.10488e-19)
(4.76226 0.00026229 3.06818e-19)
(4.76272 0.000321561 0)
(4.76305 0.000376133 0)
(4.76324 0.00042801 0)
(4.76331 0.000477985 2.92385e-19)
(4.76327 0.00052563 0)
(4.7631 0.000570172 0)
(4.76282 0.000611106 0)
(4.76243 0.000648571 0)
(4.76194 0.000683201 -2.74887e-19)
(4.76136 0.000715707 0)
(4.76069 0.00074662 0)
(4.75994 0.000776375 2.64669e-19)
(4.7591 0.000804949 -2.61308e-19)
(4.75818 0.000831843 0)
(4.75718 0.000856399 -2.54654e-19)
(4.75611 0.000878222 0)
(4.75497 0.000897804 2.48087e-19)
(4.75376 0.00091615 0)
(4.75249 0.000934182 0)
(4.75117 0.000952147 0)
(4.74978 0.000969527 0)
(4.74833 0.000985527 0)
(4.74683 0.000999638 -4.57805e-19)
(4.74527 0.0010121 -4.51556e-19)
(4.74366 0.00102375 0)
(4.74201 0.0010355 0)
(4.7403 0.00104761 0)
(4.73855 0.00105965 4.26962e-19)
(4.73675 0.00107094 0)
(4.7349 0.00108098 0)
(4.73301 0.00109 0)
(4.73107 0.00109861 4.02992e-19)
(4.72909 0.00110722 -3.97095e-19)
(4.72706 0.00111589 0)
(4.725 0.00112457 0)
(4.72289 0.00113302 -3.79623e-19)
(4.72073 0.0011409 -3.73872e-19)
(4.71853 0.0011481 0)
(4.71629 0.0011549 0)
(4.71401 0.00116174 3.56831e-19)
(4.71168 0.00116899 -3.5122e-19)
(4.70932 0.00117676 0)
(4.7069 0.00118483 0)
(4.70444 0.00119303 -3.34592e-19)
(4.70194 0.0012013 0)
(4.69938 0.00120954 0)
(4.69677 0.00121763 -3.18261e-19)
(4.6941 0.00122612 0)
(4.69138 0.00123578 -3.07534e-19)
(4.6886 0.00124664 0)
(4.68575 0.00125936 0)
(4.68283 0.00127431 0)
(4.67981 0.00129122 2.86453e-19)
(4.6767 0.00131113 0)
(4.67347 0.00133446 0)
(4.6701 0.00136216 0)
(4.66657 0.00139641 0)
(4.66284 0.00143882 0)
(4.65887 0.00149115 0)
(4.6546 0.00155724 2.5071e-19)
(4.64995 0.00164062 2.4572e-19)
(4.64481 0.00174703 0)
(4.63906 0.0018863 0)
(4.63249 0.00206778 0)
(4.62484 0.00231305 -2.26055e-19)
(4.61572 0.00264814 0)
(4.60448 0.00310973 4.32823e-19)
(4.59048 0.00382542 -4.23289e-19)
(4.57118 0.00468068 -4.13839e-19)
(4.54719 0.00712739 4.04493e-19)
(4.50168 0.00756886 -3.95279e-19)
(4.45482 0.0283541 3.86241e-19)
(4.28873 0.034284 0)
(0.045488 -0.301839 0)
(0.144367 -0.31475 0)
(0.243594 -0.314941 -4.15704e-19)
(0.344132 -0.314318 0)
(0.445266 -0.313382 4.0959e-19)
(0.546872 -0.312157 4.06544e-19)
(0.648869 -0.310637 2.01785e-19)
(0.751166 -0.30882 2.00204e-19)
(0.853655 -0.306701 0)
(0.95623 -0.304277 1.97183e-19)
(1.05879 -0.301547 0)
(1.16122 -0.29851 0)
(1.26342 -0.295165 -3.85416e-19)
(1.36526 -0.291517 -1.91181e-19)
(1.46662 -0.287575 3.79438e-19)
(1.56739 -0.283345 3.76459e-19)
(1.66745 -0.278835 1.86714e-19)
(1.76667 -0.274055 0)
(1.86498 -0.269021 0)
(1.96223 -0.26375 0)
(2.05831 -0.258261 1.80857e-19)
(2.15311 -0.25257 0)
(2.24659 -0.246695 -5.33656e-19)
(2.33861 -0.240659 0)
(2.42907 -0.234491 0)
(2.5179 -0.228212 -1.73494e-19)
(2.60507 -0.221829 0)
(2.69049 -0.215367 1.70598e-19)
(2.77408 -0.208869 3.38355e-19)
(2.8558 -0.202349 -1.67719e-19)
(2.93561 -0.195813 0)
(3.01346 -0.189283 0)
(3.08937 -0.182787 0)
(3.1633 -0.176341 3.24067e-19)
(3.23518 -0.16996 3.21239e-19)
(3.30502 -0.163653 1.59195e-19)
(3.37288 -0.157433 0)
(3.43874 -0.151321 -3.1279e-19)
(3.50253 -0.145331 0)
(3.56431 -0.139456 3.07236e-19)
(3.62415 -0.133699 0)
(3.68205 -0.128088 0)
(3.73796 -0.122639 -2.98994e-19)
(3.79192 -0.117332 0)
(3.84405 -0.112154 -8.80722e-19)
(3.89438 -0.10713 2.90864e-19)
(3.94285 -0.102286 0)
(3.98949 -0.0976038 2.85509e-19)
(4.03442 -0.093056 2.82851e-19)
(4.0777 -0.0886526 0)
(4.11931 -0.0844249 0)
(4.15926 -0.08037 0)
(4.19762 -0.076454 0)
(4.2345 -0.0726652 0)
(4.26991 -0.0690286 -2.67198e-19)
(4.30384 -0.0655608 -5.29298e-19)
(4.33634 -0.0622393 2.62094e-19)
(4.3675 -0.0590352 0)
(4.39738 -0.0559524 -5.14112e-19)
(4.42597 -0.0530135 2.54562e-19)
(4.4533 -0.0502193 0)
(4.47943 -0.0475442 2.49589e-19)
(4.50444 -0.0449711 0)
(4.52836 -0.0425094 0)
(4.55118 -0.0401729 4.84538e-19)
(4.57295 -0.0379545 -2.39851e-19)
(4.59373 -0.0358333 4.74918e-19)
(4.61358 -0.0338005 -4.70153e-19)
(4.6325 -0.0318644 -2.32705e-19)
(4.65052 -0.0300312 0)
(4.66768 -0.0282921 -2.28015e-19)
(4.68403 -0.0266323 0)
(4.6996 -0.0250475 0)
(4.71442 -0.0235427 0)
(4.72849 -0.0221195 -2.18819e-19)
(4.74188 -0.02077 0)
(4.7546 -0.0194857 -4.28609e-19)
(4.76669 -0.0182657 6.3621e-19)
(4.77815 -0.0171127 2.0985e-19)
(4.78902 -0.0160236 0)
(4.79934 -0.0149891 2.05456e-19)
(4.80914 -0.0140025 0)
(4.81843 -0.013066 4.0224e-19)
(4.82722 -0.0121849 0)
(4.83553 -0.0113579 3.93684e-19)
(4.84339 -0.0105759 -7.78902e-19)
(4.85083 -0.00983174 -3.85243e-19)
(4.85788 -0.00912575 0)
(4.86455 -0.00846377 0)
(4.87083 -0.00784871 0)
(4.87676 -0.00727475 3.68698e-19)
(4.88236 -0.00673464 0)
(4.88765 -0.00622324 -3.60593e-19)
(4.89264 -0.00574364 0)
(4.89733 -0.00529724 1.0578e-18)
(4.90175 -0.00487961 3.48641e-19)
(4.90592 -0.00448486 3.44711e-19)
(4.90984 -0.00410931 0)
(4.91355 -0.00375366 0)
(4.91703 -0.00342124 0)
(4.92029 -0.00311341 0)
(4.92334 -0.00282714 0)
(4.92621 -0.00255704 6.43374e-19)
(4.92892 -0.00229975 6.35881e-19)
(4.93147 -0.0020561 0)
(4.93385 -0.00182902 -3.10525e-19)
(4.93608 -0.00161997 -3.06854e-19)
(4.93816 -0.0014272 0)
(4.94011 -0.00124697 -5.99175e-19)
(4.94195 -0.0010762 0)
(4.94367 -0.00091425 2.92419e-19)
(4.94528 -0.000762298 0)
(4.94678 -0.000621498 0)
(4.94818 -0.000491895 -5.63698e-19)
(4.94949 -0.000372377 0)
(4.95071 -0.000261248 2.74921e-19)
(4.95185 -0.000156939 0)
(4.95292 -5.84196e-05 0)
(4.95392 3.47412e-05 2.647e-19)
(4.95485 0.000122161 2.6134e-19)
(4.95572 0.000202899 0)
(4.95652 0.000276214 -2.54684e-19)
(4.95727 0.000342424 0)
(4.95796 0.000403176 2.48117e-19)
(4.95861 0.000460576 4.89734e-19)
(4.95922 0.00051592 0)
(4.95979 0.000569015 0)
(4.96032 0.000618708 0)
(4.9608 0.000663729 0)
(4.96126 0.000703753 4.57864e-19)
(4.96167 0.000739803 1.35484e-18)
(4.96207 0.00077376 0)
(4.96244 0.000807104 0)
(4.96278 0.000840017 0)
(4.9631 0.000871432 -4.27018e-19)
(4.9634 0.000899954 0)
(4.96367 0.000925025 0)
(4.96392 0.000947484 8.1796e-19)
(4.96415 0.000968761 4.03043e-19)
(4.96437 0.0009898 3.97148e-19)
(4.96457 0.00101074 0)
(4.96476 0.00103124 0)
(4.96493 0.00105051 3.79675e-19)
(4.96509 0.00106774 -3.73921e-19)
(4.96523 0.00108307 0)
(4.96535 0.00109778 0)
(4.96547 0.00111292 -3.56881e-19)
(4.96558 0.00112889 1.05381e-18)
(4.96567 0.00114596 0)
(4.96575 0.00116396 0)
(4.96582 0.001182 3.3464e-19)
(4.96587 0.00119974 0)
(4.9659 0.00121771 6.47435e-19)
(4.96591 0.00123662 -3.18304e-19)
(4.96591 0.00125753 0)
(4.96588 0.00128202 3.07579e-19)
(4.96583 0.00131068 6.04522e-19)
(4.96574 0.00134476 0)
(4.96561 0.00138584 0)
(4.96542 0.00143407 -2.86497e-19)
(4.96517 0.00149258 0)
(4.96483 0.00156412 5.52272e-19)
(4.96438 0.00165174 0)
(4.9638 0.00176216 0)
(4.96305 0.00190199 0)
(4.96207 0.00207793 0)
(4.96081 0.00230297 -2.50751e-19)
(4.95917 0.00259177 -2.45761e-19)
(4.95704 0.00296379 0)
(4.95427 0.00345235 0)
(4.95065 0.00409521 0)
(4.94587 0.00496043 2.26094e-19)
(4.93953 0.0061456 0)
(4.93094 0.00777775 -4.32898e-19)
(4.9193 0.0102429 4.23363e-19)
(4.9025 0.0135166 4.13913e-19)
(4.87933 0.020746 4.04508e-19)
(4.8421 0.0276271 3.95351e-19)
(4.79475 0.070216 3.86082e-19)
(4.7273 0.0996147 0)
(0.0449388 -0.503572 0)
(0.144866 -0.526451 0)
(0.244676 -0.526794 4.15704e-19)
(0.345911 -0.525734 4.12755e-19)
(0.44778 -0.524165 -4.0959e-19)
(0.550134 -0.522115 -4.06544e-19)
(0.652882 -0.519577 1.0963e-22)
(0.755928 -0.516542 0)
(0.859166 -0.513003 0)
(0.96249 -0.508953 0)
(1.06579 -0.504384 0)
(1.16895 -0.499297 0)
(1.27185 -0.493694 1.15646e-18)
(1.37437 -0.487583 0)
(1.47638 -0.480974 -3.79438e-19)
(1.57777 -0.473874 -3.76459e-19)
(1.67841 -0.4663 0)
(1.7782 -0.45828 0)
(1.877 -0.449839 0)
(1.97469 -0.440996 0)
(2.07113 -0.43178 -3.6166e-19)
(2.16631 -0.422235 0)
(2.2601 -0.41239 3.55788e-19)
(2.35233 -0.402271 0)
(2.44292 -0.391926 0)
(2.53191 -0.381401 0)
(2.61921 -0.37072 6.88417e-19)
(2.7046 -0.359921 0)
(2.78807 -0.34905 -3.38355e-19)
(2.86975 -0.338132 6.71091e-19)
(2.94953 -0.3272 0)
(3.02722 -0.316301 0)
(3.10284 -0.305463 0)
(3.17654 -0.294696 -3.24067e-19)
(3.24824 -0.284033 -3.21239e-19)
(3.31782 -0.273519 0)
(3.3853 -0.263168 0)
(3.45082 -0.252977 6.25733e-19)
(3.51436 -0.242967 6.20159e-19)
(3.57582 -0.233177 -6.1461e-19)
(3.63525 -0.223622 0)
(3.69275 -0.214294 0)
(3.74834 -0.205187 0)
(3.802 -0.196325 0)
(3.85375 -0.187732 5.87161e-19)
(3.90365 -0.179406 5.81827e-19)
(3.95177 -0.171327 -5.76454e-19)
(3.99812 -0.163494 0)
(4.04272 -0.15593 0)
(4.08562 -0.148646 0)
(4.12687 -0.141622 0)
(4.16653 -0.134836 5.49994e-19)
(4.20464 -0.128292 0)
(4.24121 -0.122012 0)
(4.27628 -0.115995 5.34455e-19)
(4.30993 -0.110215 5.29298e-19)
(4.3422 -0.104648 0)
(4.37313 -0.0993028 -1.03835e-18)
(4.40274 -0.0941971 5.14113e-19)
(4.43108 -0.0893238 -5.09109e-19)
(4.45819 -0.0846541 0)
(4.48414 -0.0801709 0)
(4.50896 -0.0758839 0)
(4.53266 -0.0718047 0)
(4.55529 -0.0679221 -4.84538e-19)
(4.5769 -0.0642106 -9.59463e-19)
(4.59754 -0.0606578 -4.74918e-19)
(4.61723 -0.0572711 4.70153e-19)
(4.636 -0.0540574 0)
(4.65388 -0.0510059 -9.21453e-19)
(4.67092 -0.0480965 -9.121e-19)
(4.68716 -0.0453194 -9.02807e-19)
(4.70262 -0.0426784 8.93573e-19)
(4.71732 -0.0401767 0)
(4.7313 -0.0378064 1.31292e-18)
(4.74459 -0.0355547 0)
(4.75723 -0.0334143 -4.28626e-19)
(4.76924 -0.0313844 -4.24142e-19)
(4.78063 -0.0294622 0)
(4.79144 -0.0276397 0)
(4.8017 -0.0259092 -8.21843e-19)
(4.81144 -0.0242702 0)
(4.82067 -0.0227253 -8.04497e-19)
(4.82941 -0.0212715 0)
(4.83767 -0.0198979 7.87382e-19)
(4.8455 -0.0185931 1.55781e-18)
(4.85292 -0.0173534 0)
(4.85994 -0.0161837 0)
(4.86657 -0.0150874 0)
(4.87283 -0.0140598 7.45593e-19)
(4.87873 -0.0130897 0)
(4.88432 -0.0121702 7.29271e-19)
(4.8896 -0.0112998 0)
(4.89458 -0.0104822 0)
(4.89926 -0.00971747 -1.4104e-18)
(4.90368 -0.00899984 0)
(4.90784 -0.00832307 -6.89426e-19)
(4.91177 -0.00768463 0)
(4.91547 -0.00708567 -6.73866e-19)
(4.91895 -0.00652712 0)
(4.92221 -0.00600614 0)
(4.92528 -0.00551674 0)
(4.92816 -0.00505409 -1.93013e-18)
(4.93088 -0.0046174 -6.35882e-19)
(4.93344 -0.00420887 0)
(4.93584 -0.00383006 0)
(4.93808 -0.00347927 0)
(4.94018 -0.00315196 0)
(4.94216 -0.00284368 5.99176e-19)
(4.94401 -0.00255264 -1.18397e-18)
(4.94576 -0.00227956 -5.84841e-19)
(4.94739 -0.00202577 1.15549e-18)
(4.94892 -0.00179137 1.1414e-18)
(4.95035 -0.00157487 5.63699e-19)
(4.95168 -0.0013738 0)
(4.95294 -0.00118583 1.09968e-18)
(4.95411 -0.00100942 0)
(4.95521 -0.000843931 -1.07234e-18)
(4.95624 -0.000689408 -5.29402e-19)
(4.95721 -0.000546376 0)
(4.95811 -0.000415259 1.032e-18)
(4.95895 -0.000295502 5.0937e-19)
(4.95973 -0.000185308 0)
(4.96047 -8.22301e-05 4.96234e-19)
(4.96116 1.55949e-05 -1.4692e-18)
(4.96181 0.000108572 0)
(4.96243 0.000195701 0)
(4.963 0.000275563 0)
(4.96353 0.000347466 0)
(4.96403 0.000412171 -9.15725e-19)
(4.9645 0.000471749 -9.03229e-19)
(4.96494 0.000528442 0)
(4.96537 0.000583433 0)
(4.96577 0.000636175 0)
(4.96614 0.000684952 0)
(4.96649 0.000728362 0)
(4.96682 0.000766626 0)
(4.96713 0.000801395 -8.17964e-19)
(4.96742 0.000834565 -2.81001e-24)
(4.9677 0.000867306 0)
(4.96797 0.000899712 0)
(4.96822 0.000930918 -7.70924e-19)
(4.96846 0.000959449 0)
(4.96868 0.000984373 7.47848e-19)
(4.96889 0.00100657 7.36413e-19)
(4.96909 0.00102836 0)
(4.96928 0.0010511 0)
(4.96947 0.00107486 -7.0254e-19)
(4.96964 0.00109992 -1.38277e-18)
(4.9698 0.00112634 0)
(4.96995 0.00115269 0)
(4.97008 0.00117813 0)
(4.9702 0.00120437 -6.47439e-19)
(4.9703 0.0012333 6.36615e-19)
(4.97039 0.00126591 0)
(4.97046 0.00130423 1.23031e-18)
(4.9705 0.00134971 6.04521e-19)
(4.97052 0.00140348 -1.1879e-18)
(4.97049 0.00146819 0)
(4.97041 0.00154528 0)
(4.97027 0.00163904 -1.12521e-18)
(4.97005 0.0017554 -5.52276e-19)
(4.96973 0.00189964 0)
(4.96928 0.00208192 0)
(4.96867 0.00231422 0)
(4.96784 0.00260827 0)
(4.96674 0.00298492 -1.003e-18)
(4.96527 0.00347093 0)
(4.96335 0.00409786 0)
(4.9608 0.00492072 0)
(4.95744 0.00600684 0)
(4.95298 0.00746264 0)
(4.94704 0.00945202 0)
(4.93899 0.0122031 -8.65755e-19)
(4.92814 0.0162377 0)
(4.91259 0.0220579 0)
(4.89232 0.0324878 -1.61808e-18)
(4.8604 0.048411 7.9045e-19)
(4.8274 0.0889856 -7.72405e-19)
(4.77556 0.140339 7.53938e-19)
(0.04405 -0.705615 0)
(0.145583 -0.740221 -8.38087e-19)
(0.246329 -0.740866 0)
(0.348666 -0.739403 -4.12755e-19)
(0.451675 -0.737213 0)
(0.555187 -0.734347 0)
(0.659102 -0.730794 4.03922e-19)
(0.763317 -0.726538 0)
(0.867725 -0.721564 0)
(0.972213 -0.71586 0)
(1.07667 -0.70942 0)
(1.18097 -0.702243 0)
(1.28497 -0.694329 -1.54237e-18)
(1.38855 -0.685686 -7.65341e-19)
(1.4916 -0.67633 7.59362e-19)
(1.59399 -0.666276 0)
(1.69554 -0.655543 0)
(1.79614 -0.644171 0)
(1.89572 -0.632202 0)
(1.99414 -0.61967 0)
(2.09122 -0.606608 -7.23752e-19)
(2.18689 -0.593074 -7.17862e-19)
(2.28111 -0.579124 7.11986e-19)
(2.37374 -0.564803 -7.06124e-19)
(2.46462 -0.550171 0)
(2.55375 -0.535278 0)
(2.64111 -0.520175 -6.88417e-19)
(2.72656 -0.504924 0)
(2.81006 -0.489576 0)
(2.8916 -0.474172 -6.71092e-19)
(2.97109 -0.458773 -6.65534e-19)
(3.04851 -0.443427 -6.59806e-19)
(3.12392 -0.428154 0)
(3.19729 -0.413001 0)
(3.2685 -0.398033 6.42741e-19)
(3.33759 -0.383271 0)
(3.40468 -0.368711 0)
(3.46976 -0.354392 -6.25733e-19)
(3.5327 -0.340378 6.20414e-19)
(3.59354 -0.326678 -6.14852e-19)
(3.65246 -0.313266 0)
(3.70947 -0.300158 0)
(3.76447 -0.287414 -1.19642e-18)
(3.81747 -0.275049 0)
(3.86863 -0.263031 -1.17464e-18)
(3.91802 -0.251343 -1.74566e-18)
(3.9656 -0.240024 1.72953e-18)
(4.01134 -0.229105 -1.14237e-18)
(4.05534 -0.218564 0)
(4.09771 -0.208363 0)
(4.13849 -0.198504 -1.11059e-18)
(4.17764 -0.189019 -5.49994e-19)
(4.21518 -0.179915 0)
(4.25123 -0.171162 0)
(4.28586 -0.162727 -5.34455e-19)
(4.31908 -0.154614 -1.05877e-18)
(4.35091 -0.146842 0)
(4.38137 -0.13941 1.03835e-18)
(4.41055 -0.13229 -1.02837e-18)
(4.4385 -0.125456 1.01835e-18)
(4.46526 -0.118906 0)
(4.49084 -0.11265 0)
(4.51528 -0.106688 0)
(4.53864 -0.100996 0)
(4.56096 -0.0955501 0)
(4.58228 -0.090344 9.59463e-19)
(4.60262 -0.085383 0)
(4.62202 -0.0806669 0)
(4.64051 -0.0761802 0)
(4.65814 -0.0719025 1.84295e-18)
(4.67495 -0.0678227 9.121e-19)
(4.69096 -0.0639416 9.02807e-19)
(4.70619 -0.0602592 -1.78718e-18)
(4.72068 -0.0567666 8.8443e-19)
(4.73446 -0.053449 -8.75286e-19)
(4.74757 -0.0502948 0)
(4.76004 -0.0472986 8.57236e-19)
(4.77188 -0.0444569 0)
(4.78311 -0.0417634 0)
(4.79377 -0.0392103 0)
(4.80389 -0.0367928 1.6437e-18)
(4.81349 -0.0345076 -8.13157e-19)
(4.82259 -0.0323495 -8.04527e-19)
(4.8312 -0.0303084 -1.59185e-18)
(4.83936 -0.0283737 -2.36217e-18)
(4.84709 -0.0265402 -7.78911e-19)
(4.85441 -0.0248084 0)
(4.86133 -0.0231792 -1.5243e-18)
(4.86786 -0.0216478 0)
(4.87403 -0.0202041 -2.2368e-18)
(4.87987 -0.0188394 0)