/*--------------------------------*- C++ -*----------------------------------*\
| =========                 |                                                 |
| \\      /  F ield         | OpenFOAM: The Open Source CFD Toolbox           |
|  \\    /   O peration     | Version:  2.1.x                                 |
|   \\  /    A nd           | Web:      www.OpenFOAM.org                      |
|    \\/     M anipulation  |                                                 |
\*---------------------------------------------------------------------------*/
FoamFile
{
    version     2.0;
    format      ascii;
    class       volSymmTensorField;
    location    "0.001";
    object      UPrime2Mean;
}
// * * * * * * * * * * * * * * * * * * * * * * * * * * * * * * * * * * * * * //

dimensions      [0 2 -2 0 0 0 0];

internalField   nonuniform List<symmTensor> 
12225
(
(0.680077 0.026999 0 0.015495 0 0)
(4.10041 -0.0973053 0 0.00500863 0 0)
(5.6225 -0.0401417 0 0.000434414 0 0)
(6.54217 -0.00971503 0 5.2948e-05 0 0)
(6.93141 0.00365929 0 2.54046e-05 0 0)
(6.9529 0.000673462 0 4.77873e-06 0 0)
(6.88825 -0.00671175 0 1.51709e-05 0 0)
(6.97174 -0.0161682 0 5.23505e-05 0 0)
(7.21569 -0.0174361 0 6.03645e-05 0 0)
(7.079 -0.0101038 0 3.66331e-05 0 0)
(7.94436 -0.0321208 0 0.000181878 0 0)
(7.31261 -0.0347446 0 0.00019492 0 0)
(8.28802 -0.0152928 0 0.000136693 0 0)
(8.92916 -0.0367715 0 0.00251381 0 0)
(8.76469 -0.322751 0 0.0340918 0 0)
(11.5824 0.623074 0 0.132368 0 0)
(18.963 -3.43783 0 1.10386 0 0)
(28.1114 2.33406 0 0.830935 0 0)
(1.73233 0.348851 0 0.114437 0 0)
(1.25173 -0.107018 0 0.084253 0 0)
(1.62098 -0.121435 0 0.0274923 0 0)
(2.02799 -0.0873278 0 0.00697858 0 0)
(2.38034 -0.0252779 0 0.000699336 0 0)
(2.50243 0.0077481 0 0.000157815 0 0)
(2.40426 0.0124491 0 0.000331411 0 0)
(2.32302 -0.0238394 0 0.00029652 0 0)
(2.62516 8.16381e-05 0 0.000126622 0 0)
(1.97216 -0.0198796 0 0.000641891 0 0)
(3.29474 -0.0691655 0 0.00283765 0 0)
(2.25471 0.0671487 0 0.0085656 0 0)
(2.49203 -0.144577 0 0.0207761 0 0)
(4.96619 -0.202362 0 0.0684548 0 0)
(2.60091 0.174866 0 0.16592 0 0)
(6.66665 -0.934953 0 0.463001 0 0)
(8.11584 -0.737321 0 0.503063 0 0)
(12.2262 -2.80389 0 2.17387 0 0)
(1.86408 0.313923 0 0.0774927 0 0)
(1.12219 0.0556841 0 0.0954632 0 0)
(1.15978 0.0407313 0 0.0465024 0 0)
(1.0891 0.00241439 0 0.0184811 0 0)
(1.06612 -0.0120256 0 0.00267587 0 0)
(1.12713 -0.00890822 0 0.000237115 0 0)
(1.11261 -0.00456999 0 0.00157435 0 0)
(1.20636 -0.0208356 0 0.00178827 0 0)
(1.19714 -0.0156621 0 0.00273564 0 0)
(1.2268 -0.0288403 0 0.00774998 0 0)
(1.74098 -0.143279 0 0.0292252 0 0)
(1.52642 -0.144494 0 0.0765373 0 0)
(2.24692 -0.35588 0 0.134376 0 0)
(2.4059 -0.436446 0 0.205285 0 0)
(2.85546 -0.634665 0 0.41768 0 0)
(3.42782 -1.00817 0 0.74708 0 0)
(4.19629 -1.31487 0 1.0064 0 0)
(4.25316 -2.38575 0 4.38431 0 0)
(1.7044 0.214758 0 0.0434502 0 0)
(1.10882 0.0404499 0 0.0790474 0 0)
(1.2202 0.0748517 0 0.0479579 0 0)
(1.23629 0.0540384 0 0.0213295 0 0)
(1.14798 0.0111531 0 0.00544596 0 0)
(1.11915 -0.0108956 0 0.000181735 0 0)
(1.11958 -0.0110213 0 0.000366077 0 0)
(1.15334 -0.016 0 0.00140741 0 0)
(1.19362 -0.0318077 0 0.00811721 0 0)
(1.26941 -0.0596751 0 0.0249384 0 0)
(1.37681 -0.0748069 0 0.0255432 0 0)
(1.45224 -0.11831 0 0.0859964 0 0)
(1.83412 -0.271899 0 0.176988 0 0)
(1.90718 -0.243071 0 0.218452 0 0)
(2.46599 -0.537666 0 0.531252 0 0)
(2.97821 -0.675137 0 0.728807 0 0)
(3.14982 -1.28075 0 1.68777 0 0)
(3.23724 -1.42023 0 2.46294 0 0)
(1.73331 0.20037 0 0.0428006 0 0)
(1.09153 0.0242318 0 0.0638391 0 0)
(1.19989 0.0627528 0 0.0376775 0 0)
(1.23709 0.0518868 0 0.0187229 0 0)
(1.15974 0.0110165 0 0.00446563 0 0)
(1.114 -0.0068393 0 0.00130948 0 0)
(1.12427 -0.0160215 0 0.000430847 0 0)
(1.14857 -0.0177952 0 0.00237908 0 0)
(1.16628 -0.0255709 0 0.0150151 0 0)
(1.21028 -0.0470847 0 0.0298879 0 0)
(1.23889 -0.0472104 0 0.0657432 0 0)
(1.31322 -0.0970273 0 0.090223 0 0)
(1.36912 -0.116098 0 0.212073 0 0)
(1.48588 -0.229547 0 0.343812 0 0)
(1.60943 -0.266636 0 0.413142 0 0)
(1.76257 -0.519048 0 0.901502 0 0)
(1.90653 -0.696456 0 1.31673 0 0)
(2.16203 -1.06341 0 2.42934 0 0)
(1.82146 0.150345 0 0.0238121 0 0)
(1.09272 0.0165575 0 0.0557837 0 0)
(1.17971 0.0604341 0 0.0443343 0 0)
(1.2179 0.0579742 0 0.0258536 0 0)
(1.14922 0.0198282 0 0.0108648 0 0)
(1.11011 -0.00608353 0 0.00333792 0 0)
(1.12671 -0.0158161 0 0.00125117 0 0)
(1.13778 -0.0199365 0 0.00682104 0 0)
(1.17626 -0.0380198 0 0.0067267 0 0)
(1.18738 -0.0342044 0 0.0242597 0 0)
(1.2459 -0.0683654 0 0.024355 0 0)
(1.28567 -0.0816842 0 0.0884584 0 0)
(1.35747 -0.141057 0 0.169185 0 0)
(1.44797 -0.189471 0 0.213258 0 0)
(1.51324 -0.24651 0 0.407173 0 0)
(1.60705 -0.414665 0 0.706946 0 0)
(1.73896 -0.652723 0 1.23485 0 0)
(1.93719 -0.942248 0 2.68201 0 0)
(1.80494 0.11939 0 0.0133412 0 0)
(1.07051 0.00378624 0 0.0354586 0 0)
(1.13025 0.038564 0 0.0304814 0 0)
(1.1555 0.0390486 0 0.0200414 0 0)
(1.10269 0.00958739 0 0.0104675 0 0)
(1.08932 -0.0101401 0 0.00503953 0 0)
(1.11004 -0.0186067 0 0.00437618 0 0)
(1.13456 -0.0274609 0 0.00196698 0 0)
(1.15659 -0.0285062 0 0.01372 0 0)
(1.18292 -0.0492082 0 0.00542551 0 0)
(1.22236 -0.0484169 0 0.0243923 0 0)
(1.25662 -0.0829873 0 0.0444595 0 0)
(1.32401 -0.0900421 0 0.0457577 0 0)
(1.36177 -0.131154 0 0.128395 0 0)
(1.42946 -0.199675 0 0.191883 0 0)
(1.50129 -0.294425 0 0.33633 0 0)
(1.56354 -0.345904 0 0.730256 0 0)
(1.5616 -0.333446 0 1.54668 0 0)
(1.88958 0.134184 0 0.0280953 0 0)
(1.0668 -0.00493533 0 0.0453518 0 0)
(1.10665 0.0335343 0 0.0431995 0 0)
(1.12125 0.0380548 0 0.0297324 0 0)
(1.08141 0.00694713 0 0.0156657 0 0)
(1.07842 -0.0144518 0 0.00779218 0 0)
(1.10431 -0.0233669 0 0.00338589 0 0)
(1.12607 -0.0295589 0 0.00541389 0 0)
(1.15058 -0.0412543 0 0.00281379 0 0)
(1.17233 -0.0487356 0 0.00865121 0 0)
(1.20501 -0.0683888 0 0.0134486 0 0)
(1.23971 -0.0831248 0 0.0162899 0 0)
(1.27883 -0.107589 0 0.0508115 0 0)
(1.31861 -0.153771 0 0.0773097 0 0)
(1.36926 -0.183151 0 0.104405 0 0)
(1.39258 -0.213761 0 0.243141 0 0)
(1.41258 -0.264589 0 0.432774 0 0)
(1.46766 -0.304836 0 0.898458 0 0)
(1.78934 0.092785 0 0.0139077 0 0)
(1.08284 -0.0141732 0 0.0338695 0 0)
(1.10972 0.0234168 0 0.03732 0 0)
(1.12007 0.0341718 0 0.0289728 0 0)
(1.0856 0.00758818 0 0.0174808 0 0)
(1.08102 -0.0140218 0 0.00914517 0 0)
(1.10338 -0.0237282 0 0.00654467 0 0)
(1.12378 -0.0337853 0 0.00388834 0 0)
(1.14417 -0.0409578 0 0.0076039 0 0)
(1.1621 -0.0578009 0 0.00607801 0 0)
(1.19325 -0.0688583 0 0.0120339 0 0)
(1.21877 -0.0896449 0 0.02489 0 0)
(1.25508 -0.118283 0 0.0279253 0 0)
(1.28622 -0.141549 0 0.055989 0 0)
(1.31261 -0.177019 0 0.116836 0 0)
(1.33091 -0.225599 0 0.172215 0 0)
(1.37269 -0.269367 0 0.303341 0 0)
(1.44768 -0.242891 0 0.57344 0 0)
(1.7332 0.0838564 0 0.0155707 0 0)
(1.08399 -0.0249925 0 0.0301056 0 0)
(1.09461 0.00812591 0 0.0341273 0 0)
(1.09446 0.0222595 0 0.0265044 0 0)
(1.0679 -0.000255001 0 0.0163993 0 0)
(1.06951 -0.0194872 0 0.00980581 0 0)
(1.0939 -0.0288286 0 0.00618706 0 0)
(1.11434 -0.0372693 0 0.00597656 0 0)
(1.13303 -0.0481293 0 0.0063553 0 0)
(1.15054 -0.0612744 0 0.00840871 0 0)
(1.1751 -0.0757351 0 0.0157579 0 0)
(1.1975 -0.0975016 0 0.0175367 0 0)
(1.22559 -0.116074 0 0.0358886 0 0)
(1.24287 -0.146632 0 0.0644167 0 0)
(1.26556 -0.181997 0 0.083484 0 0)
(1.28198 -0.201117 0 0.133188 0 0)
(1.29374 -0.208393 0 0.218579 0 0)
(1.3383 -0.201034 0 0.402396 0 0)
(1.79948 0.0954333 0 0.0131156 0 0)
(1.07695 -0.0167799 0 0.0233283 0 0)
(1.09198 0.0115509 0 0.0292431 0 0)
(1.09247 0.0223269 0 0.0263923 0 0)
(1.06278 -0.000293827 0 0.0196922 0 0)
(1.06298 -0.020822 0 0.0133713 0 0)
(1.08596 -0.0308896 0 0.00977034 0 0)
(1.10512 -0.0408711 0 0.00757146 0 0)
(1.12157 -0.0516265 0 0.0085528 0 0)
(1.13517 -0.0663708 0 0.0105499 0 0)
(1.15618 -0.0811302 0 0.0145626 0 0)
(1.17262 -0.0994581 0 0.0232469 0 0)
(1.19237 -0.121205 0 0.0361839 0 0)
(1.20499 -0.14637 0 0.0492507 0 0)
(1.21881 -0.167188 0 0.082009 0 0)
(1.2217 -0.187775 0 0.120583 0 0)
(1.22354 -0.210023 0 0.169474 0 0)
(1.2505 -0.225 0 0.250581 0 0)
(1.79895 0.0865124 0 0.0107843 0 0)
(1.05679 -0.0316377 0 0.0255472 0 0)
(1.04888 -0.0091226 0 0.0320628 0 0)
(1.03544 0.00118767 0 0.0279405 0 0)
(1.0247 -0.0189714 0 0.0192543 0 0)
(1.04336 -0.0345225 0 0.0120326 0 0)
(1.06878 -0.0407999 0 0.00829112 0 0)
(1.08836 -0.0482064 0 0.00714163 0 0)
(1.10404 -0.0582331 0 0.00834681 0 0)
(1.11639 -0.0716681 0 0.0106291 0 0)
(1.13307 -0.085226 0 0.0161415 0 0)
(1.14415 -0.103357 0 0.0226603 0 0)
(1.15909 -0.120864 0 0.0335135 0 0)
(1.16462 -0.140793 0 0.050229 0 0)
(1.17004 -0.162483 0 0.070945 0 0)
(1.17053 -0.180725 0 0.0908307 0 0)
(1.16919 -0.194861 0 0.114447 0 0)
(1.18054 -0.191765 0 0.150064 0 0)
(1.72373 0.0895877 0 0.0152685 0 0)
(1.07847 -0.0370956 0 0.0276243 0 0)
(1.06574 -0.0144987 0 0.0323204 0 0)
(1.04457 -0.000591952 0 0.0277925 0 0)
(1.02751 -0.0190098 0 0.0194683 0 0)
(1.03884 -0.0352242 0 0.0123409 0 0)
(1.06141 -0.0427868 0 0.00872464 0 0)
(1.07827 -0.0511238 0 0.00764457 0 0)
(1.08968 -0.0615838 0 0.00879893 0 0)
(1.097 -0.0747311 0 0.0113715 0 0)
(1.10856 -0.0878829 0 0.0159894 0 0)
(1.11465 -0.1037 0 0.0223059 0 0)
(1.12349 -0.119022 0 0.0322851 0 0)
(1.12356 -0.137084 0 0.0429199 0 0)
(1.12495 -0.153448 0 0.0577446 0 0)
(1.12179 -0.167083 0 0.0740488 0 0)
(1.11392 -0.180737 0 0.0917287 0 0)
(1.1047 -0.193616 0 0.106301 0 0)
(1.71264 0.0904887 0 0.0207535 0 0)
(1.062 -0.0469311 0 0.0286405 0 0)
(1.04462 -0.0254335 0 0.032091 0 0)
(1.02042 -0.0120796 0 0.0273811 0 0)
(1.00795 -0.029579 0 0.0175952 0 0)
(1.02299 -0.0436339 0 0.0100018 0 0)
(1.04407 -0.0497542 0 0.00683936 0 0)
(1.05918 -0.0569321 0 0.00648622 0 0)
(1.06842 -0.0662869 0 0.0080162 0 0)
(1.07316 -0.0778671 0 0.0106931 0 0)
(1.08074 -0.0894123 0 0.0150454 0 0)
(1.08263 -0.103093 0 0.0205299 0 0)
(1.08691 -0.116114 0 0.0280881 0 0)
(1.08321 -0.130659 0 0.0364536 0 0)
(1.08005 -0.144207 0 0.0471662 0 0)
(1.07317 -0.156855 0 0.0569109 0 0)
(1.06223 -0.169494 0 0.0661238 0 0)
(1.05418 -0.17836 0 0.0744578 0 0)
(1.71919 0.101861 0 0.022763 0 0)
(1.11 -0.0526492 0 0.0307406 0 0)
(1.08972 -0.0246317 0 0.0304466 0 0)
(1.06501 -0.00652262 0 0.02458 0 0)
(1.03343 -0.0234906 0 0.0152926 0 0)
(1.02857 -0.0403874 0 0.00862398 0 0)
(1.04348 -0.0495278 0 0.00606617 0 0)
(1.05321 -0.0580185 0 0.00600591 0 0)
(1.05493 -0.0673214 0 0.00749522 0 0)
(1.05256 -0.0778947 0 0.00995348 0 0)
(1.05436 -0.0881968 0 0.0135831 0 0)
(1.0517 -0.0998381 0 0.0179725 0 0)
(1.05133 -0.11071 0 0.0237189 0 0)
(1.04398 -0.122865 0 0.0296049 0 0)
(1.03752 -0.133954 0 0.0366387 0 0)
(1.02824 -0.144434 0 0.0430769 0 0)
(1.01503 -0.154715 0 0.0494228 0 0)
(1.00254 -0.16358 0 0.0547931 0 0)
(1.74577 0.0333965 0 0.0130761 0 0)
(1.09561 -0.0261288 0 0.0123454 0 0)
(1.08172 -0.0142145 0 0.0116048 0 0)
(1.0612 -0.00906873 0 0.0123829 0 0)
(1.0232 -0.0230028 0 0.0117575 0 0)
(1.01361 -0.0379989 0 0.00996747 0 0)
(1.02561 -0.0468322 0 0.00840205 0 0)
(1.03292 -0.0553278 0 0.00771483 0 0)
(1.03182 -0.0648793 0 0.00828263 0 0)
(1.02681 -0.0750554 0 0.00980743 0 0)
(1.0252 -0.0843392 0 0.0123223 0 0)
(1.01976 -0.0942083 0 0.0153831 0 0)
(1.016 -0.103292 0 0.0192565 0 0)
(1.00639 -0.113117 0 0.0231853 0 0)
(0.99755 -0.121948 0 0.027772 0 0)
(0.986217 -0.130673 0 0.0318199 0 0)
(0.971598 -0.139035 0 0.0357299 0 0)
(0.957827 -0.146447 0 0.0391304 0 0)
(1.80997 0.0200064 0 0.0118042 0 0)
(1.05266 -0.0317761 0 0.0109279 0 0)
(1.02596 -0.0227938 0 0.0119564 0 0)
(0.99851 -0.0201858 0 0.0129786 0 0)
(0.976128 -0.0348984 0 0.0108329 0 0)
(0.982016 -0.0468944 0 0.00769281 0 0)
(0.99557 -0.0527112 0 0.00577466 0 0)
(1.00329 -0.0587363 0 0.00533736 0 0)
(1.00304 -0.0657669 0 0.00603125 0 0)
(0.998349 -0.0731917 0 0.00740056 0 0)
(0.995123 -0.0801687 0 0.00934301 0 0)
(0.988418 -0.0875123 0 0.0116059 0 0)
(0.982431 -0.0943439 0 0.0142885 0 0)
(0.971505 -0.101725 0 0.0169629 0 0)
(0.960991 -0.10837 0 0.0199133 0 0)
(0.948384 -0.115161 0 0.0225036 0 0)
(0.933258 -0.12142 0 0.025016 0 0)
(0.91856 -0.127239 0 0.0272397 0 0)
(1.70867 0.0772984 0 0.0158939 0 0)
(1.07845 -0.0457046 0 0.0156533 0 0)
(1.03743 -0.0339032 0 0.0159051 0 0)
(1.00258 -0.0259617 0 0.0126442 0 0)
(0.977661 -0.0371648 0 0.00769097 0 0)
(0.978284 -0.0469204 0 0.00453103 0 0)
(0.990042 -0.0526422 0 0.00357041 0 0)
(0.995573 -0.0579635 0 0.00377751 0 0)
(0.991031 -0.06311 0 0.00450612 0 0)
(0.982137 -0.0682178 0 0.00554589 0 0)
(0.975153 -0.0731073 0 0.00688767 0 0)
(0.96593 -0.0782823 0 0.00844108 0 0)
(0.95717 -0.0831771 0 0.0102122 0 0)
(0.94471 -0.0885171 0 0.0119705 0 0)
(0.932618 -0.0933003 0 0.0138438 0 0)
(0.918963 -0.0983484 0 0.0154972 0 0)
(0.903522 -0.102857 0 0.0170886 0 0)
(0.888318 -0.107218 0 0.0185079 0 0)
(1.71109 0.0652407 0 0.0128753 0 0)
(1.05327 -0.0349461 0 0.0145129 0 0)
(1.01739 -0.0349046 0 0.0100157 0 0)
(0.989252 -0.0326776 0 0.00552656 0 0)
(0.963911 -0.0405931 0 0.00319762 0 0)
(0.965132 -0.0466541 0 0.00268593 0 0)
(0.976752 -0.0513226 0 0.0028912 0 0)
(0.982016 -0.0552948 0 0.00321921 0 0)
(0.976849 -0.0585104 0 0.00364163 0 0)
(0.967296 -0.0616746 0 0.0042585 0 0)
(0.959072 -0.064869 0 0.00509347 0 0)
(0.949043 -0.0683536 0 0.00610518 0 0)
(0.938879 -0.0717086 0 0.00725987 0 0)
(0.925733 -0.0754563 0 0.00842024 0 0)
(0.912725 -0.0788217 0 0.00963408 0 0)
(0.89846 -0.0825173 0 0.0107061 0 0)
(0.882938 -0.0857372 0 0.0117344 0 0)
(0.867495 -0.0889752 0 0.0126496 0 0)
(1.84309 0.0987881 0 0.0174367 0 0)
(1.05797 -0.0414293 0 0.0263391 0 0)
(1.05961 -0.0322102 0 0.0196676 0 0)
(1.04945 -0.0266053 0 0.0106163 0 0)
(1.00123 -0.0395273 0 0.00530395 0 0)
(0.981621 -0.0483652 0 0.00398474 0 0)
(0.988167 -0.0530127 0 0.00400674 0 0)
(0.989232 -0.0552583 0 0.00383323 0 0)
(0.978201 -0.05579 0 0.00354043 0 0)
(0.964029 -0.0563845 0 0.00350901 0 0)
(0.952561 -0.057549 0 0.0038072 0 0)
(0.940574 -0.0593227 0 0.00438595 0 0)
(0.928517 -0.0612617 0 0.00513197 0 0)
(0.914289 -0.063701 0 0.00592213 0 0)
(0.900226 -0.065962 0 0.00674604 0 0)
(0.885297 -0.0686157 0 0.00747546 0 0)
(0.869565 -0.0709037 0 0.00817178 0 0)
(0.853826 -0.0733213 0 0.00878146 0 0)
(1.75451 0.0197175 0 0.0099266 0 0)
(1.09592 -0.0205672 0 0.00391655 0 0)
(1.09157 -0.0265682 0 0.00190852 0 0)
(1.08685 -0.032349 0 0.0018311 0 0)
(1.03626 -0.0375058 0 0.0020774 0 0)
(1.00687 -0.0416902 0 0.00225666 0 0)
(1.00783 -0.0448338 0 0.00233018 0 0)
(1.00318 -0.0465186 0 0.00233255 0 0)
(0.985356 -0.0470439 0 0.00233879 0 0)
(0.965929 -0.0475246 0 0.00246035 0 0)
(0.950856 -0.0482849 0 0.00273292 0 0)
(0.936653 -0.0494792 0 0.00315249 0 0)
(0.922671 -0.0507902 0 0.00367214 0 0)
(0.907322 -0.0525183 0 0.00421689 0 0)
(0.892289 -0.0541097 0 0.00478671 0 0)
(0.876721 -0.0560681 0 0.00528582 0 0)
(0.860701 -0.0577378 0 0.00576317 0 0)
(0.844635 -0.0595831 0 0.00617104 0 0)
(1.78596 -0.000115349 0 0.00570788 0 0)
(1.0379 -0.0140417 0 0.00381455 0 0)
(1.03847 -0.0248877 0 0.00197871 0 0)
(1.0334 -0.0329919 0 0.00172275 0 0)
(0.992156 -0.0344074 0 0.00184708 0 0)
(0.978424 -0.0359093 0 0.00186677 0 0)
(0.987697 -0.0379902 0 0.00180648 0 0)
(0.989496 -0.0392054 0 0.00173089 0 0)
(0.976914 -0.0394423 0 0.00168942 0 0)
(0.960477 -0.0395466 0 0.00174947 0 0)
(0.946362 -0.0398243 0 0.00193324 0 0)
(0.932432 -0.040454 0 0.00223268 0 0)
(0.91803 -0.0412059 0 0.00261059 0 0)
(0.902376 -0.042332 0 0.00300666 0 0)
(0.886859 -0.0433871 0 0.00342208 0 0)
(0.870896 -0.0447997 0 0.00377673 0 0)
(0.854677 -0.0459987 0 0.00411661 0 0)
(0.83833 -0.0474024 0 0.00439612 0 0)
(1.87446 -0.0168365 0 0.00617628 0 0)
(1.04238 -0.0215837 0 0.00334826 0 0)
(1.0438 -0.0337082 0 0.00372983 0 0)
(1.05055 -0.0430499 0 0.00439897 0 0)
(1.00994 -0.0405451 0 0.0041432 0 0)
(0.992173 -0.0382487 0 0.00344902 0 0)
(0.999477 -0.0380246 0 0.00269843 0 0)
(0.998813 -0.0370667 0 0.00203919 0 0)
(0.982816 -0.0351529 0 0.00156547 0 0)
(0.963531 -0.0335624 0 0.00134966 0 0)
(0.947275 -0.0326544 0 0.00137048 0 0)
(0.931941 -0.0324215 0 0.00156436 0 0)
(0.916318 -0.0325395 0 0.00185166 0 0)
(0.899916 -0.0331019 0 0.00216085 0 0)
(0.883731 -0.0336917 0 0.00248621 0 0)
(0.867286 -0.0346412 0 0.00275706 0 0)
(0.850792 -0.0354568 0 0.00301505 0 0)
(0.834111 -0.036501 0 0.00321634 0 0)
(1.67951 0.0181918 0 0.0064519 0 0)
(1.05198 -0.0184503 0 0.00194243 0 0)
(1.06287 -0.0332317 0 0.00367122 0 0)
(1.08553 -0.0429002 0 0.00435629 0 0)
(1.04146 -0.0382569 0 0.00354483 0 0)
(1.01254 -0.0337815 0 0.00252877 0 0)
(1.01378 -0.0319011 0 0.00178873 0 0)
(1.0085 -0.0300373 0 0.00128945 0 0)
(0.988503 -0.0277632 0 0.000977007 0 0)
(0.966547 -0.0259438 0 0.00086401 0 0)
(0.948486 -0.0248209 0 0.000932587 0 0)
(0.932011 -0.0243517 0 0.00112139 0 0)
(0.915462 -0.0242566 0 0.00136902 0 0)
(0.898544 -0.0245288 0 0.00162365 0 0)
(0.881898 -0.0248233 0 0.00189101 0 0)
(0.865077 -0.0254131 0 0.00211351 0 0)
(0.848339 -0.0259174 0 0.00232524 0 0)
(0.831345 -0.0266494 0 0.00248438 0 0)
(1.76709 -0.0329556 0 0.00256653 0 0)
(1.04621 -0.0195083 0 0.0101375 0 0)
(1.08883 -0.0529708 0 0.0163575 0 0)
(1.13982 -0.0668385 0 0.0132023 0 0)
(1.08317 -0.048567 0 0.00712043 0 0)
(1.03587 -0.0342517 0 0.00334732 0 0)
(1.0277 -0.0284943 0 0.00177373 0 0)
(1.01706 -0.0250469 0 0.00109077 0 0)
(0.993552 -0.0218553 0 0.000726953 0 0)
(0.969445 -0.0193796 0 0.000597495 0 0)
(0.949918 -0.0178623 0 0.000669633 0 0)
(0.932498 -0.0170957 0 0.000852369 0 0)
(0.915233 -0.0168056 0 0.00107423 0 0)
(0.897969 -0.0168096 0 0.00129964 0 0)
(0.881033 -0.0168651 0 0.00153117 0 0)
(0.863955 -0.0171295 0 0.00173307 0 0)
(0.847019 -0.0173128 0 0.00193487 0 0)
(0.829723 -0.0177112 0 0.00209036 0 0)
(1.65789 -0.0462381 0 0.00549065 0 0)
(1.06993 -0.0162087 0 0.0149258 0 0)
(1.14802 -0.0612792 0 0.019616 0 0)
(1.23712 -0.073284 0 0.0130936 0 0)
(1.16705 -0.0452437 0 0.0048618 0 0)
(1.08604 -0.0244054 0 0.00113899 0 0)
(1.05633 -0.0173941 0 0.000388952 0 0)
(1.03353 -0.0152127 0 0.000306653 0 0)
(1.00283 -0.0134105 0 0.000324209 0 0)
(0.974517 -0.0116872 0 0.000407552 0 0)
(0.952497 -0.0106275 0 0.000565484 0 0)
(0.933666 -0.0100376 0 0.000761611 0 0)
(0.915589 -0.00988916 0 0.000949463 0 0)
(0.897987 -0.00976193 0 0.00115444 0 0)
(0.880837 -0.00971013 0 0.00135263 0 0)
(0.863675 -0.00973152 0 0.00153994 0 0)
(0.846661 -0.00959125 0 0.00175657 0 0)
(0.829062 -0.00960853 0 0.00194576 0 0)
(1.8276 -0.133654 0 0.0165645 0 0)
(1.05399 -0.0326211 0 0.0483733 0 0)
(1.16988 -0.0920729 0 0.047799 0 0)
(1.2706 -0.0941844 0 0.0245851 0 0)
(1.17912 -0.0449062 0 0.00609343 0 0)
(1.08304 -0.0156896 0 0.00054161 0 0)
(1.0482 -0.00864026 0 0.000120737 0 0)
(1.02664 -0.00786078 0 0.000169317 0 0)
(0.999513 -0.00690903 0 0.000261853 0 0)
(0.973336 -0.00544164 0 0.000399469 0 0)
(0.951977 -0.00457349 0 0.000567447 0 0)
(0.933249 -0.00403619 0 0.0007513 0 0)
(0.915242 -0.00401097 0 0.000889465 0 0)
(0.897813 -0.00371326 0 0.00108282 0 0)
(0.880672 -0.00363423 0 0.00124041 0 0)
(0.863723 -0.00339525 0 0.00142566 0 0)
(0.846905 -0.00290964 0 0.00167468 0 0)
(0.829119 -0.00251822 0 0.00191357 0 0)
(1.85773 -0.117914 0 0.0121623 0 0)
(1.0933 -0.0519628 0 0.0539303 0 0)
(1.22915 -0.103334 0 0.050174 0 0)
(1.28031 -0.0833101 0 0.0230015 0 0)
(1.16108 -0.0236953 0 0.00325789 0 0)
(1.06595 0.00266792 0 0.000470167 0 0)
(1.02899 0.00398493 0 0.000893506 0 0)
(1.00508 0.00146622 0 0.000521983 0 0)
(0.978902 0.000911355 0 0.00052262 0 0)
(0.954735 0.00138129 0 0.000713692 0 0)
(0.934817 0.00155413 0 0.000873719 0 0)
(0.917492 0.00178371 0 0.00104532 0 0)
(0.900835 0.00146953 0 0.00108954 0 0)
(0.88497 0.00207789 0 0.00134688 0 0)
(0.869315 0.00177131 0 0.0013871 0 0)
(0.853715 0.00243337 0 0.00163105 0 0)
(0.838667 0.00316333 0 0.00193112 0 0)
(0.821632 0.00421366 0 0.00232229 0 0)
(1.78752 -0.256468 0 0.0643629 0 0)
(1.07224 0.0128215 0 0.112355 0 0)
(1.08701 0.0279474 0 0.0756134 0 0)
(1.04004 0.0421127 0 0.0304198 0 0)
(1.09044 0.0259707 0 0.00463297 0 0)
(1.13077 -0.00611937 0 0.000698024 0 0)
(1.09935 -0.0132934 0 0.00101198 0 0)
(1.04881 -0.00861562 0 0.000569279 0 0)
(1.01281 -0.00640425 0 0.000495783 0 0)
(0.984694 -0.00697699 0 0.000609266 0 0)
(0.956947 -0.00728976 0 0.000693033 0 0)
(0.927942 -0.00754458 0 0.000803153 0 0)
(0.900019 -0.0068981 0 0.000794108 0 0)
(0.875689 -0.00718932 0 0.00100441 0 0)
(0.84782 -0.00683502 0 0.000978563 0 0)
(0.829338 -0.00639347 0 0.00118567 0 0)
(0.802878 -0.00596141 0 0.00138041 0 0)
(0.785697 -0.00544515 0 0.00155462 0 0)
(1.17064 -0.0851821 0 0.012907 0 0)
(2.39085 0.141538 0 0.0177187 0 0)
(3.79151 0.114164 0 0.00496054 0 0)
(4.93617 0.0382834 0 0.000543294 0 0)
(5.53181 -0.0224928 0 0.000238287 0 0)
(5.49381 -0.0368684 0 0.000322871 0 0)
(5.23474 -0.0235149 0 0.000176672 0 0)
(5.02912 -0.0137592 0 0.000156597 0 0)
(4.88667 -0.0143744 0 0.000186884 0 0)
(4.74754 -0.0185939 0 0.00020631 0 0)
(4.5949 -0.0209781 0 0.000227372 0 0)
(4.43559 -0.0224808 0 0.000253298 0 0)
(4.27396 -0.0232072 0 0.000273668 0 0)
(4.12556 -0.0259539 0 0.000327253 0 0)
(3.94114 -0.0251474 0 0.000309777 0 0)
(3.83333 -0.0305486 0 0.000462766 0 0)
(3.5988 -0.0251425 0 0.0003251 0 0)
(3.5538 -0.0371835 0 0.000706928 0 0)
(4.81145e-05 -9.97048e-05 0 0.000206986 0 0)
(0.000375835 -0.000254215 0 0.000173081 0 0)
(0.000996393 -0.000408759 0 0.000168275 0 0)
(0.00190719 -0.000559935 0 0.000164741 0 0)
(0.00310722 -0.000706191 0 0.000160781 0 0)
(0.00459114 -0.00084639 0 0.000156323 0 0)
(0.00635041 -0.000979487 1.46806e-20 0.000151418 -2.15028e-21 9.81653e-36)
(0.00837448 -0.00110462 -1.65079e-20 0.000146138 2.04992e-21 9.66908e-36)
(0.0106511 -0.00122114 0 0.000140571 0 0)
(0.0131664 -0.0013286 -1.98534e-20 0.000134811 1.83454e-21 9.37842e-36)
(0.0159054 -0.00142673 0 0.000128942 0 0)
(0.0188523 -0.00151535 0 0.000123027 0 0)
(0.0219908 -0.00159446 0 0.000117131 0 0)
(0.0253047 -0.00166433 2.51789e-20 0.000111324 -1.37502e-21 8.81396e-36)
(0.0287775 -0.00172537 0 0.00010566 0 0)
(0.0323927 -0.00177787 0 0.000100164 0 0)
(0.0361357 -0.00182232 -2.79265e-20 9.48607e-05 1.04315e-21 8.4052e-36)
(0.039993 -0.00185955 0 8.97844e-05 0 0)
(0.0439488 -0.00189001 0 8.49355e-05 0 0)
(0.0479878 -0.00191357 0 8.02783e-05 0 0)
(0.0521021 -0.00193098 3.00242e-20 7.58135e-05 -6.60648e-22 7.87952e-36)
(0.0562839 -0.00194372 0 7.15742e-05 0 0)
(0.0605162 -0.00195199 3.04764e-20 6.75446e-05 -5.04946e-22 7.62497e-36)
(0.0647854 -0.00195483 0 6.36677e-05 0 0)
(0.0690918 -0.00195295 0 5.9932e-05 0 0)
(0.073431 -0.00194845 3.0574e-20 5.63709e-05 -3.2145e-22 7.25349e-36)
(0.0777825 -0.0019414 0 5.29835e-05 0 0)
(0.0821341 -0.00192951 -3.03179e-20 4.9716e-05 2.24999e-22 7.01276e-36)
(0.086496 -0.00191274 0 4.65381e-05 0 0)
(0.0908666 -0.00189474 2.98638e-20 4.34896e-05 -1.61184e-22 6.77756e-36)
(0.0952161 -0.00187663 0 4.06128e-05 0 0)
(0.099534 -0.00185427 0 3.78717e-05 0 0)
(0.103841 -0.00182628 0 3.52091e-05 0 0)
(0.108133 -0.00179754 0 3.26495e-05 0 0)
(0.112377 -0.00177005 0 3.02556e-05 0 0)
(0.116567 -0.00173918 -2.78058e-20 2.80115e-05 5.06304e-23 6.10515e-36)
(0.120723 -0.00170307 0 2.58557e-05 0 0)
(0.124842 -0.00166655 5.40158e-20 2.38011e-05 -9.19055e-23 2.35682e-35)
(0.128891 -0.00163202 0 2.19067e-05 0 0)
(0.132869 -0.00159525 -5.24151e-20 2.01584e-05 7.68956e-23 2.27377e-35)
(0.136794 -0.00155387 0 1.8495e-05 0 0)
(0.140661 -0.001512 0 1.69257e-05 0 0)
(0.144447 -0.00147273 5.00351e-20 1.55039e-05 -9.85097e-23 2.15327e-35)
(0.148146 -0.00143306 0 1.42167e-05 0 0)
(0.151775 -0.00138987 4.85633e-20 1.30028e-05 -1.08671e-22 2.07564e-35)
(0.155334 -0.00134554 -4.78283e-20 1.18615e-05 1.25378e-22 2.03762e-35)
(0.158805 -0.00130366 0 1.084e-05 0 0)
(0.162182 -0.00126314 -4.64465e-20 9.93585e-06 1.39677e-22 1.96318e-35)
(0.165474 -0.00122078 -4.58073e-20 9.09309e-06 1.48051e-22 1.92675e-35)
(0.168689 -0.00117691 0 8.29647e-06 0 0)
(0.171817 -0.0011347 0 7.58436e-06 0 0)
(0.174847 -0.001095 0 6.97062e-06 0 0)
(0.177786 -0.00105546 0 6.41393e-06 0 0)
(0.180643 -0.00101466 0 5.88225e-06 0 0)
(0.183416 -0.000974281 4.23575e-20 5.39554e-06 -2.11441e-22 1.71901e-35)
(0.186096 -0.000936239 0 4.97951e-06 0 0)
(0.188685 -0.000899979 -4.13951e-20 4.61923e-06 2.21702e-22 1.6538e-35)
(0.191188 -0.000863741 0 4.28133e-06 0 0)
(0.193612 -0.000827368 0 3.9614e-06 0 0)
(0.195951 -0.000792305 4.0104e-20 3.67972e-06 -2.42411e-22 1.55967e-35)
(0.198203 -0.000759317 0 3.4422e-06 0 0)
(0.200374 -0.000727566 -3.9347e-20 3.23033e-06 2.45947e-22 1.49931e-35)
(0.202468 -0.000696087 0 3.0282e-06 0 0)
(0.204485 -0.000665173 0 2.84111e-06 0 0)
(0.206426 -0.000635753 0 2.68027e-06 0 0)
(0.208291 -0.000608009 3.8007e-20 2.54342e-06 -2.5782e-22 1.38418e-35)
(0.210083 -0.000581279 0 2.41845e-06 0 0)
(0.211807 -0.000555111 0 2.30015e-06 0 0)
(0.213464 -0.000529811 3.71484e-20 2.19311e-06 -2.60743e-22 1.30258e-35)
(0.215054 -0.000505839 0 2.10085e-06 0 0)
(0.216578 -0.000483163 3.66322e-20 2.02038e-06 -2.59668e-22 1.25036e-35)
(0.218041 -0.000461401 0 1.94685e-06 0 0)
(0.219446 -0.000440392 0 1.87956e-06 0 0)
(0.220792 -0.000420315 0 1.81994e-06 0 0)
(0.222081 -0.000401273 -3.57046e-20 1.76668e-06 2.57244e-22 1.15098e-35)
(0.223318 -0.000383114 0 1.71709e-06 0 0)
(0.224503 -0.000365698 0 1.67145e-06 0 0)
(0.225639 -0.000349177 -3.5086e-20 1.63334e-06 2.53711e-22 1.08072e-35)
(0.226727 -0.000333793 -3.4892e-20 1.60447e-06 2.51781e-22 1.05808e-35)
(0.227767 -0.000319493 0 1.58191e-06 0 0)
(0.228764 -0.000305878 -3.45226e-20 1.5603e-06 2.46464e-22 1.01396e-35)
(0.229721 -0.000292628 0 1.53759e-06 0 0)
(0.230639 -0.000279895 -6.83211e-20 1.51775e-06 4.91036e-22 3.88533e-35)
(0.231517 -0.000268112 0 1.50581e-06 0 0)
(0.232357 -0.00025748 -6.7635e-20 1.50274e-06 4.85659e-22 3.72066e-35)
(0.233162 -0.000247664 0 1.50323e-06 0 0)
(0.233933 -0.000237745 6.698e-20 1.49082e-06 -4.76523e-22 3.56166e-35)
(0.234675 -0.000227545 0 1.46325e-06 0 0)
(0.235387 -0.000217457 0 1.42613e-06 0 0)
(0.23607 -0.000207965 0 1.38456e-06 0 0)
(0.236726 -0.00019914 -6.56979e-20 1.3417e-06 4.55805e-22 3.26006e-35)
(0.237358 -0.000190997 0 1.30226e-06 0 0)
(0.237967 -0.000183473 6.50848e-20 1.26921e-06 -4.38028e-22 3.11715e-35)
(0.238553 -0.000176887 0 1.24652e-06 0 0)
(0.239116 -0.00017086 -6.4476e-20 1.22544e-06 4.20113e-22 2.9793e-35)
(0.239658 -0.000165264 -6.41786e-20 1.20506e-06 4.10568e-22 2.91222e-35)
(0.240183 -0.000160011 -6.3882e-20 1.1861e-06 4.02054e-22 2.84635e-35)
(0.24069 -0.000154947 0 1.16767e-06 0 0)
(0.241182 -0.000150067 0 1.14969e-06 0 0)
(0.241659 -0.000145535 0 1.13315e-06 0 0)
(0.242121 -0.000141554 0 1.11976e-06 0 0)
(0.242569 -0.000138137 0 1.10966e-06 0 0)
(0.243006 -0.000135049 0 1.10084e-06 0 0)
(0.243433 -0.000132054 0 1.09137e-06 0 0)
(0.24385 -0.000129103 0 1.08077e-06 0 0)
(0.244258 -0.000126332 6.12115e-20 1.06995e-06 -3.50269e-22 2.30505e-35)
(0.244657 -0.000123951 6.09177e-20 1.06095e-06 -3.45267e-22 2.25032e-35)
(0.245049 -0.000122056 0 1.0551e-06 0 0)
(0.245434 -0.000120524 0 1.05137e-06 0 0)
(0.245814 -0.000119143 0 1.04789e-06 0 0)
(0.24619 -0.0001178 5.97409e-20 1.04351e-06 -3.25026e-22 2.04144e-35)
(0.246562 -0.000116503 0 1.03804e-06 0 0)
(0.24693 -0.000115365 0 1.03261e-06 0 0)
(0.247296 -0.000114504 0 1.02858e-06 0 0)
(0.24766 -0.000113951 0 1.02648e-06 0 0)
(0.248023 -0.000113654 -5.82516e-20 1.0259e-06 3.04267e-22 1.80181e-35)
(0.248385 -0.000113516 0 1.02593e-06 0 0)
(0.248747 -0.000113438 0 1.02549e-06 0 0)
(0.24911 -0.000113364 5.73469e-20 1.02412e-06 -2.93104e-22 1.66877e-35)
(0.249474 -0.000113314 -5.70429e-20 1.02208e-06 2.89995e-22 1.62614e-35)
(0.249841 -0.000113371 0 1.02019e-06 0 0)
(0.250209 -0.000113657 -5.64326e-20 1.01965e-06 2.83736e-22 1.54334e-35)
(0.250581 -0.000114238 0 1.02104e-06 0 0)
(0.250956 -0.00011507 5.58207e-20 1.02403e-06 -2.76084e-22 1.46375e-35)
(0.251334 -0.00011601 0 1.02736e-06 0 0)
(0.251718 -0.000116913 0 1.0297e-06 0 0)
(0.252108 -0.000117727 0 1.03055e-06 0 0)
(0.252503 -0.000118528 0 1.0306e-06 0 0)
(0.252904 -0.000119473 0 1.03134e-06 0 0)
(0.253312 -0.000120684 -1.07889e-19 1.03399e-06 5.14485e-22 4.97317e-35)
(0.253727 -0.00012215 -1.07256e-19 1.03851e-06 5.07415e-22 4.83635e-35)
(0.254149 -0.000123721 0 1.04347e-06 0 0)
(0.25458 -0.000125238 0 1.0475e-06 0 0)
(0.255019 -0.000126649 0 1.0501e-06 0 0)
(0.255468 -0.000128015 1.04679e-19 1.05179e-06 -4.84449e-22 4.31641e-35)
(0.255926 -0.000129487 0 1.054e-06 0 0)
(0.256394 -0.000131183 0 1.0578e-06 0 0)
(0.256872 -0.000133089 0 1.06314e-06 0 0)
(0.257361 -0.000135108 1.02054e-19 1.06919e-06 -4.61564e-22 3.83811e-35)
(0.257862 -0.000137133 -1.01387e-19 1.07491e-06 4.55627e-22 3.72473e-35)
(0.258374 -0.000139104 0 1.07966e-06 0 0)
(0.258899 -0.000141026 0 1.08349e-06 0 0)
(0.259436 -0.000142977 -9.93558e-20 1.08714e-06 4.40512e-22 3.39882e-35)
(0.259987 -0.000145055 -9.86689e-20 1.09153e-06 4.34767e-22 3.2948e-35)
(0.260551 -0.000147309 0 1.09711e-06 0 0)
(0.261129 -0.000149708 0 1.10368e-06 0 0)
(0.261722 -0.000152161 9.65752e-20 1.11043e-06 -4.17378e-22 2.99606e-35)
(0.26233 -0.000154568 -9.58651e-20 1.11648e-06 4.12162e-22 2.90081e-35)
(0.262953 -0.000156889 0 1.12148e-06 0 0)
(0.263593 -0.00015916 0 1.12568e-06 0 0)
(0.264249 -0.000161432 -9.3692e-20 1.12958e-06 3.97483e-22 2.62754e-35)
(0.264922 -0.000163753 0 1.13363e-06 0 0)
(0.265612 -0.000166208 0 1.13868e-06 0 0)
(0.266319 -0.000168825 -9.1463e-20 1.14488e-06 3.80706e-22 2.37231e-35)
(0.267044 -0.000171471 0 1.15116e-06 0 0)
(0.267786 -0.000174052 -8.99378e-20 1.15694e-06 3.69531e-22 2.21175e-35)
(0.268547 -0.000176529 0 1.16184e-06 0 0)
(0.269326 -0.000178793 0 1.16515e-06 0 0)
(0.270123 -0.000180875 0 1.16739e-06 0 0)
(0.270936 -0.000182838 8.67824e-20 1.16908e-06 -3.47263e-22 1.9126e-35)
(0.271765 -0.000184592 0 1.16989e-06 0 0)
(0.272609 -0.000186143 0 1.17011e-06 0 0)
(0.273465 -0.000187313 0 1.16855e-06 0 0)
(0.27433 -0.00018782 0 1.16372e-06 0 0)
(0.275202 -0.000187544 0 1.15541e-06 0 0)
(0.276074 -0.000186212 0 1.14219e-06 0 0)
(0.276939 -0.00018341 8.08708e-20 1.12252e-06 -3.0092e-22 1.45491e-35)
(0.277787 -0.000178909 7.99741e-20 1.09645e-06 -2.91558e-22 1.39596e-35)
(0.278606 -0.000171901 0 1.06037e-06 0 0)
(0.279377 -0.000161553 0 1.01286e-06 0 0)
(0.280076 -0.00014683 0 9.51523e-07 0 0)