/*--------------------------------*- C++ -*----------------------------------*\
| =========                 |                                                 |
| \\      /  F ield         | OpenFOAM: The Open Source CFD Toolbox           |
|  \\    /   O peration     | Version:  2.1.x                                 |
|   \\  /    A nd           | Web:      www.OpenFOAM.org                      |
|    \\/     M anipulation  |                                                 |
\*---------------------------------------------------------------------------*/
FoamFile
{
    version     2.0;
    format      ascii;
    class       volScalarField;
    location    "0.2";
    object      T;
}
// * * * * * * * * * * * * * * * * * * * * * * * * * * * * * * * * * * * * * //

dimensions      [0 0 0 1 0 0 0];

internalField   nonuniform List<scalar> 
400
(
300.002
300.005
300.009
300.014
300.02
300.028
300.038
300.049
300.061
300.074
300.087
300.098
300.107
300.111
300.109
300.1
300.085
300.065
300.04
300.014
300.005
300.016
300.029
300.045
300.066
300.091
300.123
300.159
300.199
300.241
300.282
300.319
300.347
300.36
300.353
300.326
300.277
300.21
300.131
300.044
300.01
300.03
300.055
300.085
300.124
300.173
300.233
300.302
300.379
300.46
300.541
300.614
300.668
300.694
300.682
300.629
300.535
300.406
300.252
300.085
300.016
300.049
300.089
300.14
300.204
300.286
300.386
300.502
300.632
300.771
300.909
301.034
301.129
301.175
301.158
301.069
300.91
300.69
300.428
300.144
300.024
300.076
300.138
300.216
300.316
300.444
300.6
300.785
300.991
301.212
301.433
301.637
301.792
301.87
301.847
301.708
301.455
301.104
300.684
300.23
300.036
300.113
300.204
300.32
300.47
300.661
300.897
301.175
301.489
301.825
302.164
302.477
302.719
302.844
302.816
302.612
302.229
301.693
301.049
300.353
300.052
300.162
300.293
300.46
300.676
300.952
301.293
301.698
302.156
302.647
303.144
303.604
303.963
304.155
304.125
303.837
303.285
302.5
301.55
300.521
300.074
300.228
300.411
300.643
300.944
301.329
301.806
302.373
303.014
303.703
304.401
305.048
305.556
305.837
305.812
305.426
304.663
303.561
302.213
300.744
300.102
300.315
300.563
300.877
301.283
301.802
302.445
303.208
304.072
305
305.938
306.809
307.499
307.892
307.883
307.392
306.385
304.901
303.056
301.028
300.139
300.427
300.757
301.169
301.7
302.376
303.21
304.199
305.317
306.516
307.728
308.854
309.755
310.288
310.315
309.723
308.453
306.53
304.093
301.38
300.188
300.571
301.002
301.53
302.202
303.052
304.094
305.325
306.715
308.205
309.711
311.115
312.255
312.958
313.051
312.382
310.85
308.453
305.336
301.804
300.253
300.761
301.315
301.976
302.801
303.832
305.086
306.559
308.219
310.001
311.805
313.5
314.903
315.813
316.019
315.317
313.552
310.668
306.796
302.308
300.345
301.019
301.723
302.534
303.522
304.733
306.189
307.885
309.791
311.84
313.929
315.914
317.6
318.761
319.14
318.477
316.537
313.187
308.502
302.907
300.481
301.388
302.284
303.269
304.428
305.814
307.449
309.333
311.438
313.706
316.037
318.291
320.269
321.721
322.347
321.817
319.799
316.04
310.507
303.628
300.698
301.954
303.111
304.311
305.66
307.22
309.013
311.042
313.286
315.692
318.186
320.647
322.886
324.647
325.589
325.308
323.349
319.292
312.91
304.53
301.078
302.894
304.434
305.927
307.518
309.275
311.215
313.348
315.662
318.095
320.612
323.138
325.533
327.556
328.843
328.933
327.217
323.048
315.883
305.735
301.808
304.586
306.734
308.668
310.6
312.614
314.688
316.852
319.107
321.436
323.818
326.207
328.517
330.587
332.136
332.684
331.44
327.465
319.719
307.5
303.4
307.915
311.04
313.635
315.938
318.127
320.247
322.33
324.396
326.456
328.505
330.518
332.473
334.291
335.791
336.608
336.026
332.74
324.906
310.406
307.543
315.114
319.465
322.552
325.037
327.169
329.065
330.793
332.403
333.929
335.387
336.763
338.079
339.316
340.395
341.105
340.959
338.848
332.28
315.847
321.567
331.34
335.63
338.144
339.836
341.076
342.044
342.841
343.525
344.136
344.69
345.192
345.659
346.092
346.474
346.739
346.704
345.821
342.156
327.997
)
;

boundaryField
{
    movingWall
    {
        type            fixedValue;
        value           uniform 350;
    }
    fixedWalls
    {
        type            fixedValue;
        value           uniform 300;
    }
    frontAndBack
    {
        type            empty;
    }
}


// ************************************************************************* //
