/*--------------------------------*- C++ -*----------------------------------*\
| =========                 |                                                 |
| \\      /  F ield         | OpenFOAM: The Open Source CFD Toolbox           |
|  \\    /   O peration     | Version:  2.1.x                                 |
|   \\  /    A nd           | Web:      www.OpenFOAM.org                      |
|    \\/     M anipulation  |                                                 |
\*---------------------------------------------------------------------------*/
FoamFile
{
    version     2.0;
    format      ascii;
    class       volScalarField;
    location    "0.005";
    object      k;
}
// * * * * * * * * * * * * * * * * * * * * * * * * * * * * * * * * * * * * * //

dimensions      [0 2 -2 0 0 0 0];

internalField   nonuniform List<scalar> 
12225
(
9.01216
9.12422
7.01611
4.94128
3.81745
3.23085
2.90654
2.62593
2.41749
2.27074
2.19275
2.16648
2.09453
2.06579
2.00619
2.0368
2.02513
2.15068
2.43631
5.08966
5.47848
5.16919
4.53763
4.02361
3.64667
3.28491
3.0042
2.77013
2.56182
2.44656
2.33697
2.24036
2.172
2.07472
1.99325
1.95194
0.199536
1.25911
1.90728
2.50595
2.65532
2.61091
2.47863
2.35242
2.27475
2.14573
1.94811
1.76567
1.6751
1.6097
1.58104
1.51376
1.41712
1.34269
0.00994895
0.152773
0.356669
0.637385
0.872671
0.932585
0.919195
0.917144
0.958649
0.984912
0.975801
0.922894
0.837167
0.795934
0.775418
0.74891
0.710992
0.682391
0.000394
0.0113297
0.0362869
0.0804319
0.173594
0.216566
0.220077
0.223447
0.237996
0.271028
0.283788
0.282042
0.26912
0.245294
0.230984
0.217098
0.192269
0.190752
3.23925e-05
0.00067082
0.00253465
0.0065635
0.0210814
0.0353174
0.0365737
0.0352484
0.03463
0.0367851
0.0488457
0.054777
0.054582
0.0521802
0.0456292
0.0382442
0.0340376
0.0351094
2.33773e-05
6.09904e-05
0.000168985
0.000430021
0.00186737
0.00396816
0.00407625
0.0034379
0.0027393
0.00281377
0.00447182
0.00709714
0.00771972
0.00760395
0.00663781
0.00507309
0.00432113
0.00443667
3.11004e-05
6.86053e-05
6.79282e-05
7.42952e-05
0.000181702
0.000436434
0.000456658
0.000385346
0.000285691
0.000281641
0.000405958
0.000807063
0.000943142
0.000944138
0.000881828
0.000679685
0.000531482
0.000537231
3.30406e-05
5.17874e-05
5.37163e-05
5.69873e-05
6.87541e-05
0.000113666
0.000130824
0.000127572
0.000108777
9.58854e-05
9.71902e-05
0.00011852
0.000135418
0.000140165
0.000138685
0.00012718
0.000113219
0.000117375
2.70374e-05
2.55128e-05
3.23968e-05
5.70175e-05
8.22933e-05
8.98896e-05
8.6728e-05
7.28122e-05
5.51464e-05
4.65964e-05
4.45561e-05
4.54501e-05
5.076e-05
5.92582e-05
6.29094e-05
6.46213e-05
6.58528e-05
7.09648e-05
2.14013e-05
2.20362e-05
2.34036e-05
2.80159e-05
4.60926e-05
6.96473e-05
7.3116e-05
6.88729e-05
5.45631e-05
4.70739e-05
4.59402e-05
4.66878e-05
5.13968e-05
5.76397e-05
6.13248e-05
6.29797e-05
6.34035e-05
7.21137e-05
2.26498e-05
2.36808e-05
2.42481e-05
2.92148e-05
5.09754e-05
6.2836e-05
6.20938e-05
5.24745e-05
4.38191e-05
4.25435e-05
4.46048e-05
5.71787e-05
0.000100804
0.000139638
0.000163239
0.000174629
0.000174952
0.000170015
2.40185e-05
2.61969e-05
2.94654e-05
3.27541e-05
3.52295e-05
3.62924e-05
3.65022e-05
3.62715e-05
3.50509e-05
3.31235e-05
3.25143e-05
3.27219e-05
3.51546e-05
3.85564e-05
3.98177e-05
4.16275e-05
4.19971e-05
4.57149e-05
2.62489e-05
3.21322e-05
3.12438e-05
2.8305e-05
2.59909e-05
2.53231e-05
2.53592e-05
2.55529e-05
2.60681e-05
2.76547e-05
3.26874e-05
3.77033e-05
3.98958e-05
4.04112e-05
4.04099e-05
3.62706e-05
3.61097e-05
3.82716e-05
2.62518e-05
2.482e-05
2.57041e-05
2.90507e-05
2.98902e-05
2.92274e-05
2.77119e-05
2.753e-05
2.8164e-05
3.08062e-05
3.29573e-05
3.55931e-05
3.84717e-05
4.02276e-05
4.01916e-05
4.03386e-05
5.03632e-05
9.51249e-05
2.25159e-05
2.26757e-05
2.56096e-05
2.63704e-05
2.57622e-05
2.52352e-05
2.54552e-05
2.7028e-05
2.84839e-05
2.93365e-05
3.029e-05
3.17697e-05
3.50729e-05
4.07712e-05
4.62148e-05
4.98626e-05
5.14701e-05
5.5702e-05
2.32324e-05
2.3058e-05
2.39843e-05
2.41277e-05
2.3833e-05
2.33955e-05
2.32995e-05
2.33442e-05
2.34501e-05
2.37804e-05
2.52155e-05
3.06551e-05
3.62829e-05
3.82834e-05
3.84645e-05
3.76266e-05
3.48167e-05
3.72914e-05
2.29074e-05
2.27075e-05
2.26397e-05
2.36913e-05
2.99656e-05
3.69015e-05
3.74972e-05
3.60132e-05
3.13073e-05
2.7807e-05
2.61214e-05
2.5085e-05
2.43612e-05
2.40654e-05
2.40655e-05
2.41487e-05
2.45163e-05
2.52444e-05
2.15334e-05
2.28667e-05
2.33168e-05
2.35526e-05
2.44161e-05
2.84763e-05
3.17596e-05
3.20307e-05
3.11009e-05
2.78663e-05
2.60091e-05
2.53839e-05
2.5177e-05
2.51829e-05
2.55102e-05
2.70309e-05
2.8813e-05
2.96573e-05
2.65095e-05
3.05098e-05
3.05295e-05
2.80241e-05
2.51691e-05
2.44949e-05
2.47229e-05
2.63343e-05
3.26756e-05
3.78483e-05
3.88435e-05
3.84131e-05
3.54806e-05
3.13236e-05
2.95146e-05
2.92471e-05
2.93643e-05
3.01158e-05
2.35617e-05
2.97005e-05
3.34477e-05
3.39477e-05
3.31522e-05
3.07234e-05
2.92965e-05
2.90677e-05
2.91428e-05
2.98187e-05
3.06263e-05
3.09431e-05
3.09802e-05
3.08803e-05
3.03264e-05
2.93316e-05
2.85874e-05
2.81113e-05
2.25809e-05
2.28862e-05
2.43412e-05
2.81644e-05
3.10961e-05
3.39628e-05
3.98654e-05
4.76035e-05
5.12154e-05
5.14846e-05
5.1114e-05
5.02672e-05
4.95962e-05
4.79836e-05
4.51019e-05
4.33146e-05
4.29422e-05
4.28448e-05
2.10046e-05
2.29323e-05
2.88318e-05
3.10304e-05
3.27077e-05
3.64661e-05
4.65206e-05
5.39375e-05
5.61338e-05
5.78096e-05
6.16465e-05
7.10059e-05
9.38296e-05
0.000107779
0.000122589
0.00013418
0.000153325
0.000177842
2.14994e-05
2.21627e-05
2.65103e-05
4.07244e-05
7.50905e-05
0.000169866
0.000291742
0.000338938
0.000366579
0.000417413
0.000536209
0.000778676
0.00113156
0.00132454
0.00159908
0.00179004
0.00214939
0.0026008
3.06144e-05
6.08548e-05
0.000168259
0.000458871
0.0010642
0.00238163
0.00431492
0.00539416
0.00613844
0.00713123
0.00896489
0.0110625
0.013517
0.0152764
0.0173646
0.0192103
0.0221122
0.0251333
3.49342e-05
0.000788949
0.00403082
0.0109659
0.0220538
0.0367226
0.0517882
0.0622035
0.0704359
0.0781714
0.0871073
0.096989
0.105921
0.114007
0.121304
0.128942
0.136171
0.145082
0.000678259
0.0194134
0.0780547
0.165636
0.247895
0.321311
0.378758
0.417432
0.445617
0.46708
0.487011
0.50504
0.516128
0.523582
0.528761
0.531961
0.531716
0.529673
0.0258046
0.325515
0.908559
1.2172
1.45807
1.61151
1.66814
1.66454
1.65138
1.62633
1.59658
1.56322
1.51936
1.47688
1.42211
1.38413
1.32526
1.29018
0.6566
3.29354
4.38358
4.39611
4.24546
3.92432
3.60177
3.31702
3.0653
2.8434
2.64545
2.46647
2.30309
2.15439
2.01405
1.8954
1.76587
1.68888
7.04288
9.85411
8.63215
6.39684
4.92874
4.00542
3.39554
2.96443
2.63048
2.35979
2.12911
1.93698
1.77018
1.62999
1.49989
1.38735
1.27172
1.182
0.000177401
0.000212752
0.000302084
0.000472996
0.000761299
0.00119434
0.00180906
0.00263293
0.00367899
0.00494904
0.00642759
0.00808489
0.00988084
0.0117628
0.0136758
0.015561
0.0173691
0.0190566
0.0205824
0.0219376
0.0230985
0.0241281
0.0250829
0.0259901
0.0268992
0.0278745
0.0289649
0.030224
0.0317236
0.0335309
0.0357144
0.0383489
0.0415151
0.0452964
0.0497788
0.05505
0.0611998
0.0683199
0.0764968
0.0858076
0.0963185
0.108085
0.12115
0.135535
0.15124
0.168246
0.186512
0.205981
0.226571
0.248183
0.270706
0.294018
0.317987
0.34247
0.367328
0.392426
0.41763
0.442804
0.467825
0.492586
0.516991
0.540947
0.564371
0.587201
0.60939
0.630897
0.651681
0.67173
0.691017
0.709573
0.727347
0.744369
0.760764
0.776114
0.790554
0.804252
0.817293
0.829735
0.841617
0.85297
0.863823
0.874205
0.884145
0.893659
0.902774
0.911519
0.919904
0.927942
0.935648
0.943043
0.95015
0.956989
0.963571
0.969909
0.976014
0.9819
0.987582
0.993071
0.998375
1.0035
1.00846
1.01327
1.01793
1.02245
1.02683
1.03109
1.03523
1.03925
1.04317
1.04698
1.05068
1.05429
1.05782
1.06126
1.06461
1.06789
1.07109
1.07423
1.07729
1.08028
1.0832
1.08606
1.08886
1.09159
1.09427
1.09689
1.09945
1.10196
1.10442
1.10683
1.10918
1.11148
1.11374
1.11594
1.1181
1.12021
1.12228
1.12429
1.12625
1.12817
1.13004
1.13187
1.13365
1.13539
1.13709
1.13873
1.14034
1.14189
1.14341
1.14487
1.14629
1.14765
1.14897
1.15023
1.15144
1.15259
1.15368
1.15471
1.15566
1.15654
1.15732
1.15801
1.15856
1.15901
1.15921
1.15946
1.15887
1.15941
1.15666
1.15841
1.15155
1.15518
1.14285
1.14756
1.12979
1.12925
1.11276
1.08627
1.07398
0.988505
0.00117556
0.000306564
0.000216209
0.000220325
0.000262213
0.000324081
0.000400512
0.000489804
0.000586452
0.000682905
0.000770585
0.000842596
0.000887943
0.000902185
0.000898509
0.000867799
0.000826235
0.000791857
0.000771091
0.000785453
0.000859207
0.000956458
0.00106205
0.00117735
0.00130185
0.0014353
0.0015789
0.00173257
0.0018968
0.00207206
0.00226018
0.00246338
0.00268405
0.0029255
0.00319128
0.00348578
0.00381483
0.0041848
0.00460259
0.00507581
0.00561293
0.00622201
0.00691153
0.00769076
0.0085691
0.00955611
0.0106613
0.0118939
0.0132628
0.0147759
0.0164407
0.0182637
0.0202506
0.0224054
0.0247308
0.0272285
0.0298987
0.03274
0.0357495
0.0389231
0.0422551
0.0457399
0.0493688
0.0531334
0.0570282
0.0610283
0.0651625
0.0693479
0.0736717
0.0780394
0.0824417
0.0870221
0.0914344
0.0961016
0.101034
0.106148
0.111378
0.116687
0.122029
0.127388
0.132729
0.138046
0.143323
0.148552
0.153735
0.158836
0.163853
0.168785
0.173634
0.178409
0.183111
0.187742
0.192312
0.196823
0.201277
0.205681
0.210037
0.214348
0.218618
0.222849
0.227045
0.231208
0.235343
0.239454
0.243544
0.247613
0.251665
0.255702
0.25973
0.263752
0.267768
0.27178
0.275789
0.279799
0.283813
0.287835
0.291864
0.295903
0.299952
0.304014
0.308093
0.312191
0.316308
0.320446
0.324605
0.328787
0.332994
0.337227
0.341488
0.34578
0.350102
0.354455
0.35884
0.363257
0.367708
0.372196
0.37672
0.38128
0.385878
0.390513
0.395185
0.399897
0.40465
0.409443
0.414277
0.419152
0.424066
0.429022
0.434021
0.439062
0.444148
0.449277
0.454448
0.459663
0.464921
0.470222
0.475568
0.480958
0.486394
0.491874
0.497405
0.502969
0.50861
0.514231
0.520047
0.525611
0.531818
0.537009
0.544069
0.548426
0.556639
0.5605
0.569776
0.573002
0.584151
0.586348
0.60157
0.602385
0.616496
0.662872
0.00429711
0.000577874
0.000240011
0.000199653
0.000194726
0.000195812
0.00019856
0.000201374
0.000203471
0.000204965
0.000205643
0.000205926
0.000206383
0.000208095
0.000212501
0.00022069
0.000233636
0.000252536
0.000278005
0.000309621
0.000347914
0.000390457
0.000436276
0.00048448
0.00053325
0.000581041
0.000627021
0.000669589
0.000707478
0.000739208
0.000764413
0.000782884
0.000794095
0.000798645
0.000796787
0.000787452
0.000772585
0.000753072
0.000729287
0.00070163
0.000670665
0.000638963
0.000608536
0.000580281
0.000554999
0.000533398
0.000516073
0.000503538
0.00049626
0.000494539
0.000498936
0.000509654
0.000527013
0.000551305
0.000582789
0.000621837
0.000668822
0.000723932
0.000787476
0.000859845
0.000941278
0.00103216
0.00113271
0.00124337
0.00136416
0.00149526
0.00163777
0.00178956
0.00195393
0.00212836
0.00231274
0.00251024
0.00271728
0.0029326
0.0031649
0.00340395
0.00366733
0.00393134
0.00422501
0.00451588
0.00483458
0.0051544
0.00549002
0.0058449
0.00618906
0.00657871
0.0070068
0.00746828
0.00796054
0.00847783
0.00901757
0.00957706
0.0101493
0.0107318
0.0113222
0.0119197
0.0125233
0.0131314
0.0137432
0.0143581
0.0149755
0.015595
0.0162162
0.0168392
0.0174639
0.0180903
0.0187184
0.0193485
0.0199811
0.0206167
0.0212556
0.0218978
0.0225436
0.0231934
0.0238482
0.0245085
0.0251748
0.0258475
0.026527
0.027214
0.0279093
0.0286137
0.0293278
0.0300521
0.030787
0.0315331
0.0322911
0.0330617
0.0338456
0.0346437
0.0354564
0.0362842
0.0371276
0.0379875
0.0388645
0.0397595
0.0406732
0.0416061
0.0425587
0.0435315
0.0445254
0.0455413
0.04658
0.0476421
0.0487283
0.0498389
0.0509748
0.0521368
0.0533259
0.0545432
0.0557896
0.0570657
0.0583725
0.0597106
0.0610813
0.062486
0.0639256
0.0654018
0.0669169
0.0684694
0.0700711
0.0716993
0.0734192
0.0750888
0.0770331
0.0785986
0.081039
0.0822345
0.0853919
0.0864923
0.0901931
0.0911127
0.096014
0.0966578
0.102924
0.103825
0.111975
0.114362
0.122704
0.15509
0.0119057
0.00118176
0.000327385
0.000220733
0.000209092
0.000207888
0.000208381
0.000209649
0.000211281
0.000214326
0.00021935
0.000227124
0.000238793
0.000255571
0.000278175
0.000307973
0.000344683
0.000388683
0.000440484
0.000498936
0.000562932
0.000630593
0.000700395
0.000770373
0.000836953
0.000897404
0.000948668
0.0009905
0.00102071
0.00103604
0.00104187
0.00103579
0.00101898
0.000992594
0.000958104
0.000917293
0.000871673
0.000822651
0.000771486
0.000719534
0.000667988
0.000617002
0.000566795
0.00051793
0.000470923
0.000426209
0.000384069
0.000344659
0.000308102
0.000274467
0.000243687
0.000215678
0.000190405
0.000167848
0.000147742
0.000129632
0.000113332
9.89678e-05
8.64701e-05
7.57468e-05
6.65961e-05
5.88413e-05
5.246e-05
4.72323e-05
4.29707e-05
3.97462e-05
3.74138e-05
3.57088e-05
3.46948e-05
3.43916e-05
3.45719e-05
3.5248e-05
3.63917e-05
3.788e-05
3.98436e-05
4.20066e-05
4.47347e-05
4.75404e-05
5.09382e-05
5.4456e-05
5.84547e-05
6.26288e-05
6.7335e-05
7.20527e-05
7.7533e-05
8.28747e-05
8.8777e-05
9.58402e-05
0.000102238
0.000110501
0.000119459
0.000127244
0.000138374
0.00015293
0.000170423
0.000190447
0.0002125
0.000236187
0.000261233
0.000287423
0.000314573
0.000342538
0.000371207
0.000400487
0.000430306
0.0004606
0.000491313
0.00052241
0.000553868
0.000585683
0.000617846
0.000650333
0.000683129
0.000716235
0.000749677
0.000783479
0.000817664
0.000852247
0.000887247
0.000922703
0.000958662
0.00099517
0.00103226
0.00106998
0.00110836
0.00114744
0.00118729
0.00122796
0.00126951
0.001312
0.00135548
0.00139999
0.0014456
0.00149239
0.00154042
0.00158977
0.00164051
0.00169271
0.00174643
0.00180173
0.00185871
0.00191747
0.00197811
0.00204072
0.00210536
0.00217212
0.00224109
0.00231237
0.00238613
0.00246252
0.00254165
0.00262365
0.00270865
0.00279681
0.00288831
0.00298338
0.00308225
0.00318511
0.00329263
0.00340406
0.00352278
0.00364203
0.00377951
0.00389836
0.00407743
0.00416967
0.00442879
0.00449575
0.00481986
0.00489123
0.00534851
0.0053754
0.00606671
0.00604629
0.00706955
0.00711795
0.0085067
0.00902653
0.0106736
0.0178456
0.0278567
0.00231993
0.000492854
0.000277367
0.000254844
0.000253827
0.000258717
0.000265752
0.000276088
0.000291117
0.000312027
0.000340342
0.000376926
0.000422881
0.00047967
0.000548811
0.000630534
0.000725014
0.000833423
0.000955089
0.00108835
0.00122687
0.00136204
0.00148918
0.00159857
0.0016879
0.00174629
0.001775
0.00178449
0.00176558
0.00172413
0.00166602
0.00159381
0.00151184
0.00142306
0.00132999
0.00123518
0.00114023
0.00104654
0.000955415
0.000867965
0.00078495
0.000706784
0.000633751
0.000566037
0.000503689
0.000446636
0.000394692
0.000347581
0.000305048
0.000266882
0.000232786
0.000202353
0.000175222
0.000151218
0.000130241
0.000112018
9.61266e-05
8.22666e-05
7.02043e-05
5.97334e-05
5.0672e-05
4.28604e-05
3.6148e-05
3.03986e-05
2.54942e-05
2.13239e-05
1.77884e-05
1.48061e-05
1.23008e-05
1.01971e-05
8.43597e-06
6.97115e-06
5.75776e-06
4.7599e-06
3.94015e-06
3.27501e-06
2.73366e-06
2.3004e-06
1.95528e-06
1.68112e-06
1.47061e-06
1.30985e-06
1.18541e-06
1.10448e-06
1.04623e-06
1.00272e-06
9.96007e-07
9.94494e-07
1.00746e-06
1.0502e-06
1.08581e-06
1.12531e-06
1.21632e-06
1.30691e-06
1.39906e-06
1.59383e-06
1.88271e-06
2.2494e-06
2.68181e-06
3.17102e-06
3.7103e-06
4.29437e-06
4.91878e-06
5.57984e-06
6.27419e-06
6.99877e-06
7.75072e-06
8.52765e-06
9.32766e-06
1.01491e-05
1.09898e-05
1.18482e-05
1.27224e-05
1.36116e-05
1.45152e-05
1.54328e-05
1.63643e-05
1.73093e-05
1.8268e-05
1.92405e-05
2.02275e-05
2.12292e-05
2.22467e-05
2.32811e-05
2.43333e-05
2.54047e-05
2.64963e-05
2.76093e-05
2.87454e-05
2.99061e-05
3.1093e-05
3.2308e-05
3.35535e-05
3.48316e-05
3.61445e-05
3.74942e-05
3.8883e-05
4.03131e-05
4.17868e-05
4.33072e-05
4.48781e-05
4.6503e-05
4.81841e-05
4.9924e-05
5.17254e-05
5.35924e-05
5.5529e-05
5.75414e-05
5.96347e-05
6.1814e-05
6.4084e-05
6.64497e-05
6.89196e-05
7.15011e-05
7.42039e-05
7.70416e-05
8.00185e-05
8.31788e-05
8.64602e-05
9.00979e-05
9.3608e-05
9.82129e-05
0.000101397
0.000108385
0.000109843
0.000120867
0.00012199
0.000135968
0.000136883
0.000159403
0.000158297
0.00019535
0.000192944
0.000253599
0.000260479
0.000350452
0.000403209
0.000538801
0.00131008
0.0563359
0.00415901
0.000734044
0.000369505
0.000338202
0.000342864
0.000362065
0.00038622
0.000416527
0.000458563
0.000513201
0.00058588
0.000677013
0.000790947
0.000931581
0.00110306
0.00131084
0.00155678
0.00184296
0.00216765
0.00252594
0.00288908
0.00322359
0.00351043
0.00371845
0.00383785
0.00388167
0.00382934
0.00370168
0.00351648
0.00329064
0.00304265
0.00278376
0.00252825
0.00228326
0.00205206
0.00183759
0.00164046
0.00146034
0.00129663
0.00114841
0.00101469
0.000894469
0.000786735
0.000690476
0.000604695
0.000528414
0.000460748
0.000400913
0.000348144
0.000301675
0.000260822
0.000225009
0.000193703
0.000166377
0.000142548
0.000121809
0.000103812
8.82433e-05
7.48146e-05
6.32653e-05
5.33594e-05
4.48846e-05
3.76537e-05
3.15011e-05
2.62805e-05
2.18649e-05
1.81418e-05
1.50093e-05
1.23806e-05
1.01849e-05
8.35731e-06
6.83961e-06
5.58232e-06
4.54363e-06
3.68806e-06
2.98548e-06
2.41021e-06
1.94062e-06
1.55842e-06
1.24833e-06
9.97524e-07
7.95184e-07
6.32357e-07
5.01907e-07
3.97658e-07
3.14524e-07
2.48607e-07
1.96327e-07
1.55045e-07
1.22743e-07
9.73079e-08
7.74397e-08
6.22503e-08
5.02726e-08
4.14176e-08
3.4843e-08
2.97715e-08
2.77512e-08
2.76469e-08
2.99559e-08
3.41587e-08
3.99834e-08
4.72632e-08
5.58671e-08
6.56873e-08
7.663e-08
8.86106e-08
1.01554e-07
1.15394e-07
1.30073e-07
1.45527e-07
1.6169e-07
1.785e-07
1.95899e-07
2.13851e-07
2.32318e-07
2.51271e-07
2.70676e-07
2.90508e-07
3.10744e-07
3.31367e-07
3.52366e-07
3.73747e-07
3.95521e-07
4.17696e-07
4.40277e-07
4.63266e-07
4.86679e-07
5.10538e-07
5.34872e-07
5.59712e-07
5.851e-07
6.11074e-07
6.37678e-07
6.64942e-07
6.92911e-07
7.21632e-07
7.51158e-07
7.81545e-07
8.12869e-07
8.45205e-07
8.78624e-07
9.1317e-07
9.48896e-07
9.85867e-07
1.02419e-06
1.06396e-06
1.10533e-06
1.14841e-06
1.19332e-06
1.24016e-06
1.28907e-06
1.34029e-06
1.39402e-06
1.45049e-06
1.51015e-06
1.57298e-06
1.64056e-06
1.71033e-06
1.79104e-06
1.8643e-06
1.9753e-06
2.03248e-06
2.21818e-06
2.23368e-06
2.51253e-06
2.53776e-06
2.91703e-06
2.93529e-06
3.58387e-06
3.57701e-06
4.71187e-06
4.75653e-06
6.72481e-06
7.37481e-06
1.07404e-05
1.39848e-05
2.09692e-05
7.59678e-05
0.0958379
0.00617075
0.000897106
0.000468696
0.000449496
0.000468475
0.000525005
0.00058698
0.000665095
0.00076657
0.000909586
0.00109203
0.00133131
0.0016401
0.00203798
0.00254385
0.00317963
0.00395967
0.0048809
0.00592324
0.00703746
0.00810882
0.00902323
0.00970859
0.0100968
0.0102551
0.0100984
0.00962276
0.00899722
0.00821898
0.00737403
0.00651693
0.00567594
0.00490374
0.00421336
0.00360529
0.00307863
0.00262725
0.00224263
0.00191609
0.00163895
0.00140336
0.00120254
0.00103086
0.000883754
0.000757509
0.000649104
0.000555983
0.000475933
0.000407074
0.00034784
0.00029691
0.000253146
0.000215556
0.000183283
0.000155595
0.000131868
0.000111565
9.42161e-05
7.94096e-05
6.67903e-05
5.60543e-05
4.69392e-05
3.92161e-05
3.26864e-05
2.71785e-05
2.25435e-05
1.86521e-05
1.5393e-05
1.26706e-05
1.04028e-05
8.51865e-06
6.95742e-06
5.66715e-06
4.60384e-06
3.73018e-06
3.01439e-06
2.42955e-06
1.95299e-06
1.5658e-06
1.25213e-06
9.98696e-07
7.94526e-07
6.30493e-07
4.9907e-07
3.94076e-07
3.10405e-07
2.43905e-07
1.91184e-07
1.49491e-07
1.16618e-07
9.07626e-08
7.04753e-08
5.45993e-08
4.22038e-08
3.25541e-08
2.50618e-08
1.9257e-08
1.47703e-08
1.13158e-08
8.67797e-09
6.6775e-09
5.1743e-09
4.05991e-09
3.25024e-09
2.6795e-09
2.29766e-09
2.06418e-09
1.94869e-09
1.92694e-09
1.97963e-09
2.0921e-09
2.25298e-09
2.45325e-09
2.68589e-09
2.94575e-09
3.22878e-09
3.53187e-09
3.85244e-09
4.18858e-09
4.53861e-09
4.90126e-09
5.2755e-09
5.66072e-09
6.05652e-09
6.46249e-09
6.87822e-09
7.30333e-09
7.73771e-09
8.18145e-09
8.63483e-09
9.09823e-09
9.57223e-09
1.00573e-08
1.05541e-08
1.10628e-08
1.15843e-08
1.21193e-08
1.26688e-08
1.32342e-08
1.38167e-08
1.44179e-08
1.50388e-08
1.568e-08
1.63426e-08
1.70279e-08
1.77383e-08
1.84759e-08
1.9244e-08
2.00441e-08
2.08784e-08
2.17499e-08
2.26606e-08
2.36164e-08
2.46224e-08
2.56831e-08
2.68092e-08
2.79986e-08
2.92926e-08
3.06183e-08
3.22159e-08
3.35734e-08
3.5925e-08
3.68179e-08
4.09271e-08
4.11796e-08
4.69469e-08
4.76847e-08
5.60952e-08
5.69839e-08
7.15423e-08
7.3287e-08
9.99307e-08
1.06439e-07
1.57192e-07
1.88388e-07
2.90119e-07
4.39707e-07
7.40111e-07
3.98662e-06
0.167231
0.0109733
0.00150798
0.0006948
0.0006361
0.000709284
0.000801843
0.000906357
0.00109943
0.00137097
0.00173292
0.00223327
0.00291294
0.00384644
0.00509509
0.00675074
0.0088849
0.0115073
0.0145436
0.0177584
0.020875
0.0235612
0.0256671
0.0269336
0.0274501
0.0273428
0.0264219
0.0244751
0.0224705
0.0199989
0.017482
0.0149991
0.0126073
0.010479
0.00863368
0.00704996
0.00572536
0.0046393
0.00376176
0.00306011
0.00250148
0.00205615
0.00169919
0.00141082
0.0011759
0.000983045
0.000823679
0.000691276
0.000580822
0.000488409
0.000410926
0.000345839
0.00029106
0.000244881
0.00020592
0.000173048
0.000145314
0.000121906
0.000102143
8.54616e-05
7.13983e-05
5.95574e-05
4.95969e-05
4.12254e-05
3.41988e-05
2.83124e-05
2.33908e-05
1.9283e-05
1.58606e-05
1.30156e-05
1.06563e-05
8.70413e-06
7.0924e-06
5.76481e-06
4.67422e-06
3.78072e-06
3.0505e-06
2.45513e-06
1.97094e-06
1.5783e-06
1.26078e-06
1.00466e-06
7.98566e-07
6.3316e-07
5.00785e-07
3.95143e-07
3.11037e-07
2.44244e-07
1.91327e-07
1.49517e-07
1.16577e-07
9.06801e-08
7.03729e-08
5.4489e-08
4.20937e-08
3.24458e-08
2.49566e-08
1.91548e-08
1.46688e-08
1.12096e-08
8.54888e-09
6.50651e-09
4.94237e-09
3.74726e-09
2.83616e-09
2.14322e-09
1.61767e-09
1.22021e-09
9.20499e-10
6.95171e-10
5.26389e-10
4.00562e-10
3.07324e-10
2.38758e-10
1.88835e-10
1.52985e-10
1.27747e-10
1.10503e-10
9.93208e-11
9.25887e-11
8.94259e-11
8.86963e-11
8.99451e-11
9.27162e-11
9.66129e-11
1.01379e-10
1.06837e-10
1.12854e-10
1.19333e-10
1.26202e-10
1.33413e-10
1.4093e-10
1.48733e-10
1.56811e-10
1.65156e-10
1.73762e-10
1.82627e-10
1.9176e-10
2.01172e-10
2.10883e-10
2.20915e-10
2.31288e-10
2.42015e-10
2.53104e-10
2.64569e-10
2.76439e-10
2.88759e-10
3.01567e-10
3.14925e-10
3.28856e-10
3.4339e-10
3.58597e-10
3.74511e-10
3.9125e-10
4.08923e-10
4.27612e-10
4.47545e-10
4.68658e-10
4.91861e-10
5.1548e-10
5.44967e-10
5.68654e-10
6.14334e-10
6.27905e-10
7.08967e-10
7.15666e-10
8.24369e-10
8.46378e-10
1.01297e-09
1.05308e-09
1.34559e-09
1.45132e-09
2.03935e-09
2.37385e-09
3.72169e-09
5.03432e-09
8.29896e-09
1.51234e-08
3.02627e-08
2.11479e-07
0.24316
0.0146253
0.00154139
0.00083747
0.000840221
0.000962836
0.00120821
0.00158782
0.00204109
0.00266441
0.00362176
0.00499951
0.00701721
0.00981377
0.0137379
0.0189721
0.0255839
0.0333894
0.0415895
0.0491596
0.0550746
0.059542
0.0623598
0.0635487
0.063799
0.0622931
0.0597778
0.0544668
0.0498981
0.0439625
0.0382295
0.0326037
0.027187
0.0223781
0.0182117
0.0145335
0.0114235
0.00888076
0.00686048
0.00529295
0.00409913
0.00319955
0.00252287
0.00201048
0.00161766
0.00131208
0.00107103
0.000878598
0.000723462
0.000597413
0.000494368
0.000409719
0.000339935
0.000282266
0.000234517
0.000194908
0.000161989
0.000134591
0.000111774
9.27696e-05
7.69414e-05
6.3753e-05
5.27608e-05
4.36033e-05
3.59829e-05
2.96493e-05
2.43897e-05
2.0026e-05
1.64112e-05
1.34225e-05
1.09561e-05
8.92397e-06
7.25263e-06
5.88111e-06
4.75841e-06
3.84144e-06
3.09394e-06
2.48592e-06
1.99263e-06
1.59352e-06
1.2714e-06
1.01198e-06
8.03534e-07
6.36482e-07
5.02988e-07
3.96575e-07
3.11932e-07
2.44773e-07
1.91618e-07
1.49661e-07
1.16633e-07
9.06839e-08
7.03428e-08
5.44406e-08
4.20381e-08
3.23928e-08
2.49091e-08
1.91118e-08
1.46302e-08
1.11757e-08
8.51996e-09
6.4822e-09
4.92181e-09
3.72957e-09
2.82047e-09
2.12879e-09
1.60382e-09
1.20631e-09
9.05849e-10
6.79114e-10
5.08315e-10
3.79912e-10
2.83581e-10
2.1145e-10
1.57529e-10
1.17282e-10
8.72877e-11
6.49761e-11
4.84112e-11
3.61358e-11
2.70614e-11
2.03639e-11
1.54355e-11
1.18202e-11
9.1774e-12
7.25451e-12
5.86492e-12
4.87061e-12
4.16938e-12
3.68514e-12
3.36166e-12
3.15554e-12
3.04036e-12
2.98566e-12
2.98929e-12
3.02792e-12
3.09456e-12
3.18391e-12
3.29148e-12
3.41428e-12
3.55018e-12
3.69766e-12
3.85555e-12
4.02288e-12
4.19923e-12
4.3846e-12
4.57939e-12
4.78376e-12
4.99844e-12
5.22368e-12
5.45981e-12
5.70816e-12
5.96922e-12
6.24483e-12
6.53696e-12
6.84703e-12
7.17942e-12
7.53303e-12
7.92527e-12
8.32497e-12
8.83584e-12
9.24232e-12
1.00573e-11
1.03183e-11
1.1774e-11
1.20241e-11
1.39017e-11
1.52425e-11
1.75471e-11
2.10355e-11
2.6456e-11
3.32355e-11
5.30916e-11
7.40248e-11
1.43756e-10
2.63582e-10
5.63459e-10
1.44948e-09
3.45143e-09
2.04548e-08
0.387066
0.0243629
0.0023071
0.00137239
0.00140531
0.00184944
0.002244
0.00259749
0.00364687
0.00529582
0.0078281
0.0115632
0.0169555
0.0247771
0.0354357
0.0494503
0.0665182
0.0851779
0.100186
0.107479
0.112332
0.115211
0.116467
0.116514
0.114768
0.111984
0.10807
0.0986493
0.0904853
0.0797256
0.0696222
0.0599195
0.0507848
0.0426329
0.035659
0.028895
0.0227274
0.0174211
0.0131123
0.00973497
0.0071786
0.00530022
0.00394823
0.00298289
0.00229031
0.00178622
0.00141198
0.00112821
0.000908812
0.000736449
0.000599409
0.000489459
0.000400643
0.000328538
0.000269768
0.000221716
0.000182336
0.000150014
0.000123452
0.000101595
8.35899e-05
6.87443e-05
5.65009e-05
4.64045e-05
3.8079e-05
3.12129e-05
2.55514e-05
2.08866e-05
1.70479e-05
1.38927e-05
1.13018e-05
9.17686e-06
7.43699e-06
6.01531e-06
4.8558e-06
3.91162e-06
3.14412e-06
2.52163e-06
2.018e-06
1.61149e-06
1.28399e-06
1.02069e-06
8.09496e-07
6.40532e-07
5.05714e-07
3.98367e-07
3.13078e-07
2.45484e-07
1.92043e-07
1.49902e-07
1.16753e-07
9.07254e-08
7.03387e-08
5.44119e-08
4.19968e-08
3.23453e-08
2.48611e-08
1.90671e-08
1.45912e-08
1.11423e-08
8.49146e-09
6.45822e-09
4.90187e-09
3.71313e-09
2.807e-09
2.1178e-09
1.59491e-09
1.1991e-09
9.00009e-10
6.74376e-10
5.04462e-10
3.76765e-10
2.80996e-10
2.09303e-10
1.55716e-10
1.15715e-10
8.58989e-11
6.3706e-11
4.7211e-11
3.49675e-11
2.58908e-11
1.91693e-11
1.41968e-11
1.05208e-11
7.80412e-12
5.79642e-12
4.31261e-12
3.21606e-12
2.40578e-12
1.80674e-12
1.3634e-12
1.03486e-12
7.91243e-13
6.1037e-13
4.76224e-13
3.76561e-13
3.02437e-13
2.47287e-13
2.06244e-13
1.75739e-13
1.53127e-13
1.3645e-13
1.2426e-13
1.15477e-13
1.09344e-13
1.05279e-13
1.02562e-13
1.01659e-13
1.0156e-13
1.02188e-13
1.03524e-13
1.05487e-13
1.07993e-13
1.10978e-13
1.14407e-13
1.1826e-13
1.22629e-13
1.27461e-13
1.33085e-13
1.39092e-13
1.47083e-13
1.54475e-13
1.67797e-13
1.78142e-13
2.0045e-13
2.29404e-13
2.58992e-13
3.55433e-13
4.42879e-13
7.05019e-13
1.21355e-12
2.45184e-12
6.14709e-12
1.38324e-11
4.07782e-11
1.03529e-10
2.78565e-10
8.00848e-10
1.97892e-09
6.14483e-09
0.522133
0.035941
0.00332961
0.00168852
0.00163346
0.0022739
0.00316568
0.00477279
0.00774434
0.01226
0.0177202
0.0259043
0.0381994
0.0567994
0.0830787
0.121222
0.155131
0.167951
0.172977
0.173891
0.167317
0.162938
0.162711
0.163353
0.163502
0.16387
0.162999
0.153401
0.1378
0.121214
0.104356
0.0894656
0.0769953
0.066531
0.0588528
0.0506631
0.0417954
0.0327019
0.0246294
0.0181592
0.0130633
0.00926184
0.00653954
0.00465415
0.00336816
0.00249028
0.00188234
0.00145122
0.0011369
0.000901562
0.000721353
0.000580817
0.000469683
0.000380992
0.000309784
0.000252329
0.000205764
0.000167894
0.000137033
0.00011186
9.13176e-05
7.45479e-05
6.085e-05
4.96535e-05
4.04965e-05
3.30056e-05
2.68784e-05
2.18683e-05
1.77728e-05
1.44259e-05
1.16924e-05
9.46224e-06
7.6452e-06
6.16679e-06
4.9654e-06
3.99043e-06
3.2006e-06
2.56204e-06
2.04683e-06
1.63188e-06
1.29827e-06
1.03059e-06
8.16329e-07
6.45226e-07
5.08893e-07
4.00481e-07
3.14455e-07
2.46359e-07
1.92584e-07
1.50223e-07
1.16924e-07
9.07986e-08
7.03551e-08
5.43968e-08
4.1968e-08
3.23093e-08
2.48189e-08
1.90228e-08
1.455e-08
1.11072e-08
8.46192e-09
6.43338e-09
4.88125e-09
3.69611e-09
2.79297e-09
2.10637e-09
1.58571e-09
1.19171e-09
8.94026e-10
6.69515e-10
5.00537e-10
3.73634e-10
2.78517e-10
2.07339e-10
1.5415e-10
1.14465e-10
8.49071e-11
6.29252e-11
4.65976e-11
3.44822e-11
2.55031e-11
1.88579e-11
1.39466e-11
1.03197e-11
7.64165e-12
5.66385e-12
4.20318e-12
3.12459e-12
2.32805e-12
1.73915e-12
1.3029e-12
9.7915e-13
7.38629e-13
5.5973e-13
4.26432e-13
3.26832e-13
2.52163e-13
1.96033e-13
1.53656e-13
1.21511e-13
9.69809e-14
7.81317e-14
6.35517e-14
5.2207e-14
4.3374e-14
3.64789e-14
3.10463e-14
2.67126e-14
2.32031e-14
2.03493e-14
1.8029e-14
1.61576e-14
1.46407e-14
1.33838e-14
1.2304e-14
1.13968e-14
1.06296e-14
9.89719e-15
9.46748e-15
9.00311e-15
8.78961e-15
8.821e-15
9.23285e-15
1.01943e-14
1.22236e-14
1.67136e-14
2.57437e-14
4.85417e-14
1.01211e-13
2.40568e-13
6.37208e-13
1.56839e-12
4.75954e-12
1.17826e-11
3.40976e-11
9.4049e-11
2.37874e-10
6.69675e-10
1.67916e-09
4.22515e-09
0.696342
0.0496998
0.00351029
0.00192708
0.00259327
0.00423393
0.00641742
0.00993305
0.0141477
0.0212627
0.0328573
0.051447
0.0813765
0.130273
0.191799
0.216963
0.225608
0.226656
0.214094
0.196753
0.190006
0.18896
0.192336
0.201325
0.212309
0.221304
0.224249
0.220057
0.202725
0.178579
0.147379
0.119143
0.0978099
0.0830393
0.0713104
0.0631738
0.0567738
0.0502732
0.0420335
0.0323304
0.0233437
0.0164283
0.0112531
0.00764257
0.00521778
0.00362269
0.00257849
0.00188742
0.00141874
0.00109037
0.000852368
0.000674571
0.000538502
0.000432537
0.000349011
0.000282543
0.000229223
0.000186174
0.000151229
0.000122833
9.97562e-05
8.09916e-05
6.57283e-05
5.33165e-05
4.32298e-05
3.50359e-05
2.83805e-05
2.29756e-05
1.85874e-05
1.50238e-05
1.213e-05
9.78181e-06
7.87777e-06
6.33523e-06
5.08682e-06
4.07769e-06
3.26324e-06
2.60686e-06
2.07871e-06
1.65437e-06
1.314e-06
1.04157e-06
8.23948e-07
6.50484e-07
5.12483e-07
4.02875e-07
3.16034e-07
2.47378e-07
1.93224e-07
1.50612e-07
1.17143e-07
9.09072e-08
7.03922e-08
5.439e-08
4.19412e-08
3.22778e-08
2.47855e-08
1.89868e-08
1.45138e-08
1.10735e-08
8.43177e-09
6.40685e-09
4.8587e-09
3.6775e-09
2.77796e-09
2.09445e-09
1.57626e-09
1.1841e-09
8.87811e-10
6.64416e-10
4.96387e-10
3.703e-10
2.75865e-10
2.05233e-10
1.52473e-10
1.13133e-10
8.38563e-11
6.21023e-11
4.59553e-11
3.39792e-11
2.51067e-11
1.85442e-11
1.36985e-11
1.01238e-11
7.4869e-12
5.54149e-12
4.10668e-12
3.04922e-12
2.26987e-12
1.69451e-12
1.26847e-12
9.52203e-13
7.17243e-13
5.42627e-13
4.12767e-13
3.15941e-13
2.43458e-13