/*--------------------------------*- C++ -*----------------------------------*\
| =========                 |                                                 |
| \\      /  F ield         | OpenFOAM: The Open Source CFD Toolbox           |
|  \\    /   O peration     | Version:  2.1.x                                 |
|   \\  /    A nd           | Web:      www.OpenFOAM.org                      |
|    \\/     M anipulation  |                                                 |
\*---------------------------------------------------------------------------*/
FoamFile
{
    version     2.0;
    format      ascii;
    class       volScalarField;
    location    "0.005";
    object      k_0;
}
// * * * * * * * * * * * * * * * * * * * * * * * * * * * * * * * * * * * * * //

dimensions      [0 2 -2 0 0 0 0];

internalField   nonuniform List<scalar> 
12225
(
9.024
9.13567
7.02143
4.9392
3.81608
3.23254
2.90741
2.62441
2.41659
2.27172
2.19623
2.16929
2.09545
2.06588
2.00758
2.0393
2.03039
2.15563
2.43975
5.09346
5.48032
5.1681
4.53502
4.02492
3.64745
3.28413
3.00376
2.76875
2.56236
2.44926
2.33907
2.2425
2.17336
2.07442
1.99468
1.95441
0.198673
1.25942
1.91061
2.51044
2.65497
2.60925
2.47642
2.35421
2.27667
2.1428
1.9418
1.76226
1.67586
1.61336
1.58419
1.51429
1.4161
1.34051
0.00995732
0.152512
0.358049
0.642012
0.873347
0.928433
0.915383
0.915415
0.962524
0.986404
0.975813
0.91754
0.833835
0.795825
0.776135
0.749876
0.712747
0.682794
0.000391093
0.0113333
0.0363803
0.0818797
0.174966
0.215164
0.218232
0.222022
0.238919
0.272341
0.283853
0.281567
0.266916
0.243725
0.229983
0.215801
0.192603
0.191945
3.22011e-05
0.000671103
0.00254663
0.00669579
0.0217206
0.0350645
0.0359561
0.0345886
0.0341999
0.0369963
0.0497858
0.0548198
0.0544302
0.0515658
0.0447327
0.0376725
0.0341331
0.0354064
2.33651e-05
6.07128e-05
0.000169284
0.000441679
0.00197051
0.00392401
0.00397512
0.00328496
0.00267849
0.00282084
0.00473573
0.00721513
0.00771256
0.00754468
0.00643
0.00494153
0.00430355
0.004463
3.23328e-05
6.70982e-05
6.62325e-05
7.40299e-05
0.000193143
0.0004326
0.000445013
0.000367566
0.000278569
0.000280253
0.000433935
0.000832613
0.000944494
0.000939621
0.000861443
0.00065472
0.000526191
0.000538529
3.26389e-05
5.0751e-05
5.28189e-05
5.63336e-05
6.91619e-05
0.000114613
0.000129301
0.000125334
0.000105896
9.47891e-05
9.72428e-05
0.000120703
0.000135971
0.00013969
0.000137619
0.000124857
0.000112742
0.000117971
2.67191e-05
2.53155e-05
3.30625e-05
5.80756e-05
8.2252e-05
8.88172e-05
8.53054e-05
7.06367e-05
5.37477e-05
4.59985e-05
4.44032e-05
4.55551e-05
5.16155e-05
5.98318e-05
6.31417e-05
6.47785e-05
6.58982e-05
6.99916e-05
2.14303e-05
2.20674e-05
2.3503e-05
2.83676e-05
4.75974e-05
6.99595e-05
7.25962e-05
6.76235e-05
5.32263e-05
4.66161e-05
4.581e-05
4.67755e-05
5.19802e-05
5.78481e-05
6.11423e-05
6.24746e-05
6.26865e-05
7.2156e-05
2.28309e-05
2.3643e-05
2.42241e-05
2.99715e-05
5.23941e-05
6.27876e-05
6.15386e-05
5.11681e-05
4.32738e-05
4.23779e-05
4.49393e-05
5.96318e-05
0.000105557
0.000142376
0.000164347
0.000174011
0.000173283
0.000166376
2.42632e-05
2.63615e-05
2.96849e-05
3.28958e-05
3.52035e-05
3.61751e-05
3.63464e-05
3.60888e-05
3.47606e-05
3.29237e-05
3.24152e-05
3.27069e-05
3.54625e-05
3.86921e-05
3.99201e-05
4.14737e-05
4.11715e-05
4.64845e-05
2.67292e-05
3.19097e-05
3.08159e-05
2.79782e-05
2.5864e-05
2.5295e-05
2.53479e-05
2.55631e-05
2.61319e-05
2.79044e-05
3.32223e-05
3.79786e-05
3.99324e-05
4.03405e-05
4.0177e-05
3.56012e-05
3.55739e-05
3.8051e-05
2.63473e-05
2.46671e-05
2.58512e-05
2.91609e-05
2.98368e-05
2.90624e-05
2.76102e-05
2.74862e-05
2.82585e-05
3.10255e-05
3.31236e-05
3.58e-05
3.86042e-05
4.01413e-05
4.00718e-05
4.03726e-05
5.29513e-05
8.56325e-05
2.21227e-05
2.27338e-05
2.57229e-05
2.63098e-05
2.56488e-05
2.51886e-05
2.54759e-05
2.71692e-05
2.85469e-05
2.93726e-05
3.03424e-05
3.18973e-05
3.54931e-05
4.12816e-05
4.65542e-05
4.96855e-05
5.07336e-05
5.50049e-05
2.31287e-05
2.30467e-05
2.39898e-05
2.4065e-05
2.3754e-05
2.33564e-05
2.32863e-05
2.33399e-05
2.34549e-05
2.3831e-05
2.54842e-05
3.13079e-05
3.66124e-05
3.83452e-05
3.84294e-05
3.73956e-05
3.46296e-05
3.71643e-05
2.29558e-05
2.26725e-05
2.26309e-05
2.38202e-05
3.0515e-05
3.69846e-05
3.7363e-05
3.56513e-05
3.0869e-05
2.7572e-05
2.59826e-05
2.49856e-05
2.43013e-05
2.40399e-05
2.40478e-05
2.41455e-05
2.45532e-05
2.53067e-05
2.16501e-05
2.29165e-05
2.33206e-05
2.35642e-05
2.45293e-05
2.8801e-05
3.1805e-05
3.1962e-05
3.08572e-05
2.75671e-05
2.58764e-05
2.53209e-05
2.51489e-05
2.51725e-05
2.55719e-05
2.72387e-05
2.89175e-05
2.96362e-05
2.68617e-05
3.03855e-05
3.02514e-05
2.76293e-05
2.50168e-05
2.44614e-05
2.47434e-05
2.6591e-05
3.32728e-05
3.80449e-05
3.88221e-05
3.82645e-05
3.49627e-05
3.0993e-05
2.93969e-05
2.92116e-05
2.93675e-05
3.02793e-05
2.39435e-05
3.00004e-05
3.35024e-05
3.38522e-05
3.29548e-05
3.05262e-05
2.92128e-05
2.90267e-05
2.91266e-05
2.98851e-05
3.06573e-05
3.09367e-05
3.09584e-05
3.08314e-05
3.01936e-05
2.921e-05
2.84941e-05
2.80556e-05
2.25646e-05
2.28486e-05
2.45204e-05
2.8324e-05
3.11547e-05
3.40723e-05
4.01507e-05
4.77298e-05
5.10644e-05
5.12494e-05
5.08342e-05
5.0002e-05
4.92857e-05
4.74968e-05
4.46213e-05
4.29646e-05
4.26723e-05
4.26281e-05
2.07016e-05
2.29548e-05
2.88818e-05
3.09157e-05
3.26235e-05
3.65056e-05
4.6721e-05
5.36648e-05
5.56623e-05
5.73799e-05
6.14169e-05
7.14249e-05
9.41329e-05
0.000107333
0.000121777
0.000133525
0.000153171
0.000180079
2.11259e-05
2.20716e-05
2.65441e-05
4.10913e-05
7.62893e-05
0.000173613
0.000288682
0.000331459
0.000359577
0.000412995
0.000541109
0.000790708
0.00113693
0.00132392
0.00159625
0.00179095
0.00216417
0.00263355
3.12023e-05
6.04693e-05
0.000166735
0.000457875
0.00107009
0.00241883
0.00430349
0.00532416
0.00606507
0.00710972
0.00899126
0.0111104
0.0135423
0.0152817
0.0173792
0.0192771
0.0222583
0.0253146
3.46917e-05
0.00078627
0.00401183
0.0109045
0.0221103
0.0368484
0.0517159
0.0619037
0.0701081
0.0779758
0.0871006
0.0970668
0.106018
0.114131
0.121508
0.129232
0.136641
0.1456
0.000696462
0.0193207
0.0775244
0.165274
0.247767
0.321258
0.378405
0.416906
0.44514
0.466892
0.487217
0.505329
0.516348
0.523869
0.529132
0.532191
0.5319
0.52978
0.0259283
0.325116
0.905555
1.21582
1.4573
1.6105
1.66687
1.66366
1.65118
1.62678
1.59733
1.56395
1.5199
1.47719
1.4223
1.38419
1.32502
1.28979
0.657625
3.29084
4.38001
4.39479
4.24466
3.92403
3.60142
3.31702
3.06572
2.8441
2.64616
2.46703
2.30341
2.15449
2.01399
1.89524
1.76576
1.68881
7.01959
9.84237
8.62713
6.39578
4.92883
4.00589
3.39606
2.96473
2.63045
2.35944
2.12868
1.93666
1.77006
1.62999
1.4999
1.38733
1.27173
1.18205
0.000176237
0.000210613
0.000298559
0.00046695
0.000751092
0.00117783
0.00178366
0.00259579
0.00362726
0.00488007
0.00633918
0.00797551
0.00974977
0.0116103
0.013503
0.0153699
0.0171626
0.0188381
0.020356
0.0217074
0.0228697
0.0239075
0.0248743
0.0257974
0.026726
0.027724
0.0288401
0.0301278
0.0316587
0.0335002
0.0357206
0.038395
0.0416041
0.0454316
0.0499634
0.0552874
0.0614932
0.0686725
0.076911
0.0862854
0.0968616
0.108694
0.121824
0.136274
0.152042
0.169107
0.187429
0.206949
0.227586
0.249239
0.271797
0.29514
0.319132
0.343634
0.368505
0.393612
0.418819
0.443994
0.469012
0.493767
0.518164
0.54211
0.565524
0.588343
0.610522
0.632017
0.652792
0.672831
0.69211
0.710659
0.728426
0.745444
0.761835
0.777179
0.791619
0.805317
0.818361
0.830807
0.842693
0.854051
0.864909
0.875298
0.885246
0.894768
0.903891
0.912644
0.921038
0.929085
0.936801
0.944207
0.951324
0.958173
0.964766
0.971115
0.97723
0.983128
0.988821
0.994321
0.999636
1.00477
1.00975
1.01457
1.01924
1.02377
1.02816
1.03243
1.03658
1.04061
1.04454
1.04836
1.05208
1.0557
1.05923
1.06268
1.06605
1.06934
1.07255
1.07569
1.07877
1.08177
1.0847
1.08757
1.09038
1.09312
1.09581
1.09844
1.10101
1.10353
1.106
1.10841
1.11078
1.11309
1.11535
1.11756
1.11973
1.12185
1.12393
1.12594
1.12791
1.12984
1.13172
1.13356
1.13535
1.1371
1.1388
1.14046
1.14207
1.14363
1.14515
1.14662
1.14805
1.14942
1.15074
1.15201
1.15323
1.15438
1.15548
1.15651
1.15747
1.15836
1.15915
1.15984
1.1604
1.16085
1.16106
1.16131
1.16074
1.16126
1.15854
1.16027
1.15344
1.15705
1.14475
1.14944
1.13168
1.13116
1.11463
1.08818
1.07586
0.990364
0.00116882
0.000305039
0.000214135
0.000217713
0.000258605
0.000319202
0.000394057
0.000481508
0.000576175
0.000670663
0.000756556
0.000827034
0.000871665
0.000885715
0.000882154
0.00085242
0.000812311
0.000779974
0.000761106
0.000778188
0.000854108
0.000951162
0.00105674
0.00117203
0.00129654
0.00143002
0.00157366
0.00172742
0.00189182
0.00206731
0.00225577
0.00245942
0.00268069
0.00292289
0.00318962
0.00348526
0.00381567
0.00418723
0.00460683
0.00508211
0.00562152
0.00623305
0.00692523
0.00770729
0.00858863
0.00957877
0.0106872
0.0119231
0.0132951
0.0148114
0.0164793
0.0183053
0.0202948
0.0224519
0.0247794
0.0272786
0.0299498
0.0327917
0.0358012
0.0389741
0.0423049
0.0457878
0.0494142
0.0531756
0.0570665
0.0610624
0.0651913
0.0693713
0.0736897
0.0780495
0.0824468
0.0870184
0.0914226
0.0960862
0.101013
0.10612
0.111341
0.116642
0.121975
0.127326
0.132657
0.137966
0.143234
0.148456
0.15363
0.158723
0.163733
0.168657
0.1735
0.178268
0.182964
0.18759
0.192155
0.196661
0.20111
0.205508
0.20986
0.214167
0.218432
0.22266
0.226852
0.231011
0.235143
0.239251
0.243337
0.247404
0.251452
0.255487
0.259512
0.263531
0.267545
0.271554
0.275561
0.279568
0.283581
0.2876
0.291628
0.295664
0.299711
0.303772
0.307849
0.311945
0.316061
0.320197
0.324355
0.328536
0.332741
0.336973
0.341234
0.345524
0.349846
0.354198
0.358582
0.362998
0.367449
0.371936
0.376459
0.38102
0.385618
0.390252
0.394925
0.399637
0.404389
0.409183
0.414017
0.418892
0.423807
0.428764
0.433763
0.438806
0.443892
0.449022
0.454195
0.459411
0.46467
0.469973
0.475321
0.480713
0.486151
0.491633
0.497166
0.502733
0.508376
0.514001
0.519818
0.525387
0.531595
0.536791
0.543853
0.548214
0.556433
0.560294
0.569578
0.572805
0.583961
0.586163
0.601392
0.602214
0.616349
0.662804
0.00427304
0.000577466
0.000238447
0.000197759
0.000192725
0.000193712
0.000196353
0.000199076
0.000201105
0.000202573
0.000203275
0.000203636
0.000204221
0.000206092
0.000210653
0.00021899
0.000232041
0.000250982
0.000276439
0.000307989
0.000346118
0.000388378
0.000433869
0.000481701
0.00053007
0.000577429
0.000622961
0.000665082
0.000702547
0.000733896
0.000758756
0.000776934
0.000787912
0.000792333
0.000790372
0.000781016
0.000766186
0.000746755
0.000723093
0.000695589
0.000664831
0.00063349
0.000603445
0.000575581
0.000550692
0.000529476
0.000512524
0.000500347
0.000493404
0.000491995
0.00049668
0.000507656
0.000525244
0.000549732
0.000581381
0.000620566
0.000667649
0.00072282
0.000786388
0.000858741
0.000940116
0.0010309
0.0011313
0.00124176
0.0013623
0.00149311
0.00163525
0.00178662
0.00195053
0.00212438
0.00230818
0.00250501
0.00271126
0.00292584
0.00315724
0.00339545
0.00365778
0.00392077
0.00421329
0.0045029
0.00482039
0.00513866
0.00547312
0.00582619
0.0061691
0.0065574
0.00698395
0.00744375
0.00793421
0.00844955
0.00898728
0.00954458
0.0101146
0.0106947
0.0112827
0.0118778
0.012479
0.0130847
0.0136941
0.0143066
0.0149215
0.0155385
0.0161573
0.0167779
0.0174002
0.0180242
0.0186499
0.0192776
0.0199078
0.020541
0.0211775
0.0218173
0.0224607
0.0231082
0.0237605
0.0244185
0.0250824
0.0257527
0.0264298
0.0271143
0.0278072
0.0285092
0.0292208
0.0299426
0.030675
0.0314186
0.032174
0.0329419
0.0337233
0.0345187
0.0353287
0.0361538
0.0369945
0.0378515
0.0387258
0.0396179
0.0405287
0.0414586
0.0424081
0.0433779
0.0443687
0.0453814
0.0464169
0.0474757
0.0485585
0.0496658
0.0507983
0.0519567
0.0531422
0.054356
0.0555986
0.056871
0.0581739
0.0595082
0.0608749
0.0622755
0.063711
0.0651831
0.0666938
0.0682421
0.0698392
0.0714631
0.0731777
0.074844
0.0767809
0.0783457
0.0807749
0.0819722
0.0851179
0.0862163
0.0899049
0.0908252
0.0957143
0.0963559
0.102613
0.103506
0.111649
0.114026
0.122359
0.154705
0.0118389
0.00118362
0.000326577
0.000218931
0.000207158
0.000205929
0.000206421
0.000207705
0.000209369
0.000212462
0.000217546
0.000225383
0.000237099
0.000253892
0.000276457
0.000306155
0.000342693
0.000386415
0.000437839
0.000495826
0.000559265
0.000626287
0.00069536
0.000764553
0.00083034
0.000890017
0.000940567
0.000981772
0.00101143
0.0010264
0.00103201
0.00102578
0.00100897
0.000982717
0.000948463
0.000907979
0.000862761
0.000814196
0.000763535
0.000712118
0.000661106
0.0006106
0.000560872
0.000512481
0.000465935
0.000421666
0.000379948
0.000340938
0.000304757
0.00027147
0.00024101
0.000213296
0.000188295
0.000165986
0.000146095
0.000128172
0.000112049
9.78492e-05
8.54987e-05
7.49052e-05
6.58663e-05
5.821e-05
5.19143e-05
4.67564e-05
4.25555e-05
3.93846e-05
3.70917e-05
3.54171e-05
3.44313e-05
3.41481e-05
3.43399e-05
3.50239e-05
3.61693e-05
3.76568e-05
3.96131e-05
4.17684e-05
4.44821e-05
4.72723e-05
5.0651e-05
5.41459e-05
5.81183e-05
6.22656e-05
6.69379e-05
7.16229e-05
7.70674e-05
8.23604e-05
8.82371e-05
9.52401e-05
0.000101587
0.000109825
0.000118682
0.000126422
0.000137532
0.000152032
0.000169441
0.000189353
0.000211271
0.000234803
0.00025968
0.000285687
0.000312645
0.00034041
0.000368871
0.000397938
0.000427539
0.00045761
0.000488097
0.000518965
0.000550192
0.000581774
0.0006137
0.000645948
0.000678503
0.000711366
0.000744564
0.00077812
0.000812057
0.000846388
0.000881135
0.000916336
0.000952037
0.000988284
0.00102511
0.00106256
0.00110066
0.00113947
0.00117904
0.00121943
0.00126069
0.00130288
0.00134605
0.00139026
0.00143555
0.00148201
0.00152971
0.00157872
0.00162911
0.00168096
0.0017343
0.00178923
0.00184581
0.00190417
0.0019644
0.00202659
0.00209079
0.00215709
0.00222559
0.0022964
0.00236966
0.00244553
0.00252414
0.00260558
0.00269002
0.00277759
0.00286848
0.00296291
0.00306112
0.00316331
0.00327011
0.00338082
0.00349872
0.00361727
0.0037537
0.00387206
0.00404951
0.00414176
0.00439875
0.00446525
0.00478746
0.00485859
0.00531243
0.00533956
0.00602676
0.00600641
0.00702535
0.00707184
0.0084562
0.00897278
0.0106134
0.0177598
0.0276984
0.00232403
0.000492842
0.000275591
0.000252823
0.000251803
0.000256727
0.000263782
0.000274129
0.00028914
0.00030999
0.000338193
0.00037459
0.000420262
0.000476647
0.000545251
0.000626306
0.000719937
0.000827285
0.000947684
0.00107941
0.00121609
0.00134928
0.00147439
0.00158186
0.00166953
0.00172656
0.0017544
0.00176349
0.00174448
0.00170341
0.00164595
0.00157465
0.00149373
0.00140608
0.00131421
0.00122059
0.00112682
0.00103426
0.000944241
0.000857844
0.000775821
0.000698581
0.000626406
0.000559482
0.000497858
0.000441464
0.000390117
0.000343544
0.000301496
0.000263767
0.000230059
0.00019997
0.000173146
0.000149419
0.00012869
0.000110681
9.49726e-05
8.12726e-05
6.935e-05
5.90011e-05
5.00461e-05
4.23271e-05
3.56948e-05
3.00146e-05
2.51699e-05
2.10507e-05
1.75589e-05
1.46141e-05
1.21404e-05
1.00632e-05
8.32469e-06
6.87891e-06
5.68147e-06
4.69687e-06
3.88812e-06
3.23202e-06
2.69806e-06
2.27086e-06
1.93056e-06
1.66031e-06
1.45296e-06
1.29447e-06
1.172e-06
1.09252e-06
1.03497e-06
9.92354e-07
9.86175e-07
9.84592e-07
9.97935e-07
1.04042e-06
1.07527e-06
1.11499e-06
1.20575e-06
1.29465e-06
1.38716e-06
1.58211e-06
1.86972e-06
2.23401e-06
2.66307e-06
3.14816e-06
3.68263e-06
4.26131e-06
4.8798e-06
5.53448e-06
6.22204e-06
6.93943e-06
7.68387e-06
8.45298e-06
9.2449e-06
1.00579e-05
1.08901e-05
1.17397e-05
1.26049e-05
1.34849e-05
1.43792e-05
1.52874e-05
1.62093e-05
1.71446e-05
1.80934e-05
1.9056e-05
2.00328e-05
2.10243e-05
2.20313e-05
2.30551e-05
2.40967e-05
2.51572e-05
2.62376e-05
2.73394e-05
2.8464e-05
2.9613e-05
3.07879e-05
3.19907e-05
3.32236e-05
3.44889e-05
3.57886e-05
3.71249e-05
3.84998e-05
3.99155e-05
4.13745e-05
4.28798e-05
4.44351e-05
4.60437e-05
4.77081e-05
4.94307e-05
5.12143e-05
5.30627e-05
5.498e-05
5.69725e-05
5.90451e-05
6.12028e-05
6.34502e-05
6.57925e-05
6.82379e-05
7.07939e-05
7.347e-05
7.62796e-05
7.92273e-05
8.2356e-05
8.56061e-05
8.92055e-05
9.26866e-05
9.72359e-05
0.000100408
0.000107299
0.000108769
0.00011968
0.000120783
0.000134621
0.000135547
0.000157835
0.000156754
0.000193462
0.000191075
0.000251307
0.000258031
0.000347454
0.000399782
0.000534472
0.00130136
0.0559824
0.00415814
0.000733816
0.000367249
0.000335683
0.000340234
0.000359431
0.000383588
0.000413807
0.000455643
0.000510043
0.000582271
0.000672774
0.000785838
0.00092531
0.00109522
0.00130094
0.00154423
0.00182704
0.00214759
0.00250091
0.00285787
0.00318601
0.0034668
0.0036692
0.00378434
0.00382623
0.00377258
0.00364559
0.00346249
0.00323984
0.00299576
0.00274129
0.0024902
0.00224948
0.00202231
0.00181151
0.00161765
0.00144042
0.00127926
0.00113327
0.0010015
0.000882988
0.000776744
0.000681789
0.000597147
0.000521861
0.000455063
0.000395987
0.000343878
0.000297985
0.000257634
0.000222258
0.000191332
0.000164337
0.000140794
0.000120304
0.000102524
8.71436e-05
7.38777e-05
6.2469e-05
5.26841e-05
4.43133e-05
3.71716e-05
3.10953e-05
2.59398e-05
2.15797e-05
1.79037e-05
1.4811e-05
1.2216e-05
1.00487e-05
8.24494e-06
6.74711e-06
5.50639e-06
4.48147e-06
3.63733e-06
2.9442e-06
2.37671e-06
1.91351e-06
1.53656e-06
1.23074e-06
9.83411e-07
7.83889e-07
6.23344e-07
4.94734e-07
3.91958e-07
3.10007e-07
2.45032e-07
1.93499e-07
1.52814e-07
1.2098e-07
9.59088e-08
7.63347e-08
6.13657e-08
4.95614e-08
4.08481e-08
3.43625e-08
2.93829e-08
2.74359e-08
2.73598e-08
2.96785e-08
3.38566e-08
3.96312e-08
4.68396e-08
5.53526e-08
6.5064e-08
7.58815e-08
8.77218e-08
1.0051e-07
1.14184e-07
1.28683e-07
1.43945e-07
1.59906e-07
1.76504e-07
1.93683e-07
2.11406e-07
2.29638e-07
2.48349e-07
2.67504e-07
2.87082e-07
3.07058e-07
3.27415e-07
3.48144e-07
3.6925e-07
3.90745e-07
4.12635e-07
4.34926e-07
4.57621e-07
4.80735e-07
5.04289e-07
5.28312e-07
5.52836e-07
5.77901e-07
6.03546e-07
6.29813e-07
6.56732e-07
6.84348e-07
7.12706e-07
7.41859e-07
7.71864e-07
8.02794e-07
8.34725e-07
8.67725e-07
9.01838e-07
9.37116e-07
9.73624e-07
1.01146e-06
1.05074e-06
1.0916e-06
1.13414e-06
1.17848e-06
1.22475e-06
1.27304e-06
1.32362e-06
1.37668e-06
1.43246e-06
1.49137e-06
1.55343e-06
1.62015e-06
1.6891e-06
1.76872e-06
1.84126e-06
1.95052e-06
2.00763e-06
2.19029e-06
2.20583e-06
2.48168e-06
2.50642e-06
2.88051e-06
2.89917e-06
3.53952e-06
3.53316e-06
4.65464e-06
4.69866e-06
6.64877e-06
7.2888e-06
1.06259e-05
1.38367e-05
2.07618e-05
7.53598e-05
0.0952572
0.00616833
0.00089863
0.000466412
0.000446642
0.000465536
0.000521599
0.000583128
0.000661035
0.000762241
0.000904464
0.00108576
0.00132335
0.00162975
0.00202412
0.00252502
0.00315387
0.00392473
0.00483439
0.00586277
0.00696133
0.00801311
0.008909
0.0095766
0.00994985
0.0101007
0.00993744
0.00946371
0.00884194
0.00807331
0.00724024
0.00639698
0.0055711
0.00481337
0.00413652
0.00354086
0.00302506
0.00258293
0.00220604
0.00188586
0.0016139
0.00138252
0.00118512
0.00101626
0.000871472
0.000747153
0.000640356
0.000548581
0.000469662
0.000401757
0.000343329
0.000293082
0.000249897
0.000212799
0.000180944
0.00015361
0.000130186
0.000110141
9.30117e-05
7.83921e-05
6.59319e-05
5.53313e-05
4.63313e-05
3.8706e-05
3.22593e-05
2.68217e-05
2.2246e-05
1.84046e-05
1.51877e-05
1.25007e-05
1.02625e-05
8.40316e-06
6.8626e-06
5.58951e-06
4.54044e-06
3.67856e-06
2.97248e-06
2.39561e-06
1.92559e-06
1.54374e-06
1.23441e-06
9.8451e-07
7.83199e-07
6.21473e-07
4.91908e-07
3.88403e-07
3.05924e-07
2.40375e-07
1.88409e-07
1.47317e-07
1.14918e-07
8.94374e-08
6.94446e-08
5.37997e-08
4.15849e-08
3.20763e-08
2.46936e-08
1.89739e-08
1.45531e-08
1.11497e-08
8.55106e-09
6.58043e-09
5.09977e-09
4.00219e-09
3.20483e-09
2.64286e-09
2.26699e-09
2.03724e-09
1.92372e-09
1.90252e-09
1.9546e-09
2.06553e-09
2.22411e-09
2.42147e-09
2.65068e-09
2.90666e-09
3.18545e-09
3.48397e-09
3.79969e-09
4.13072e-09
4.47542e-09
4.83255e-09
5.20107e-09
5.5804e-09
5.97014e-09
6.3699e-09
6.77927e-09
7.19789e-09
7.62564e-09
8.06261e-09
8.50907e-09
8.96542e-09
9.43221e-09
9.90995e-09
1.03992e-08
1.09002e-08
1.14138e-08
1.19407e-08
1.2482e-08
1.30388e-08
1.36127e-08
1.42048e-08
1.48164e-08
1.54481e-08
1.61007e-08
1.67758e-08
1.74756e-08
1.82022e-08
1.89589e-08
1.97472e-08
2.05691e-08
2.14276e-08
2.23248e-08
2.32665e-08
2.42575e-08
2.53026e-08
2.6412e-08
2.7584e-08
2.88584e-08
3.01658e-08
3.17373e-08
3.30803e-08
3.53876e-08
3.62829e-08
4.03167e-08
4.05668e-08
4.62605e-08
4.6987e-08
5.52627e-08
5.61494e-08
7.04939e-08
7.22237e-08
9.84996e-08
1.04916e-07
1.55097e-07
1.8584e-07
2.86559e-07
4.34299e-07
7.3178e-07
3.95195e-06
0.166306
0.0109443
0.00150702
0.000691527
0.000632421
0.000704515
0.000797649
0.000902687
0.00109479
0.00136497
0.00172506
0.00222264
0.00289816
0.00382479
0.00506317
0.006703
0.00881497
0.0114089
0.0144119
0.0175908
0.0206699
0.0233105
0.0253722
0.0266037
0.0271021
0.0269574
0.0260349
0.0240969
0.0220973
0.0196526
0.0171633
0.0147139
0.0123587
0.0102655
0.00845361
0.00690207
0.00560632
0.00454493
0.00368775
0.00300234
0.00245636
0.0020207
0.00167109
0.00138834
0.00115775
0.000968272
0.000811577
0.000681313
0.000572588
0.000481582
0.000405252
0.000341113
0.000287117
0.000241588
0.000203168
0.000170746
0.000143387
0.000120294
0.000100794
8.43333e-05
7.04553e-05
5.877e-05
4.894e-05
4.06781e-05
3.37436e-05
2.79343e-05
2.30773e-05
1.90235e-05
1.56463e-05
1.2839e-05
1.05111e-05
8.58502e-06
6.99491e-06
5.68522e-06
4.6094e-06
3.72807e-06
3.00785e-06
2.42066e-06
1.94316e-06
1.55596e-06
1.24287e-06
9.9034e-07
7.87145e-07
6.24076e-07
4.93579e-07
3.89441e-07
3.06537e-07
2.40702e-07
1.88546e-07
1.4734e-07
1.14875e-07
8.93544e-08
6.93426e-08
5.36902e-08
4.14758e-08
3.19691e-08
2.45897e-08
1.88729e-08
1.44529e-08
1.10445e-08
8.42295e-09
6.41066e-09
4.86958e-09
3.6921e-09
2.79443e-09
2.11172e-09
1.59392e-09
1.20233e-09
9.07031e-10
6.85022e-10
5.18721e-10
3.94741e-10
3.02867e-10
2.35301e-10
1.86101e-10
1.50764e-10
1.25884e-10
1.08878e-10
9.78425e-11
9.11922e-11
8.80591e-11
8.73185e-11
8.85306e-11
9.12418e-11
9.50606e-11
9.97349e-11
1.05091e-10
1.10998e-10
1.17359e-10
1.24105e-10
1.31186e-10
1.38569e-10
1.46234e-10
1.54169e-10
1.62367e-10
1.70821e-10
1.7953e-10
1.88503e-10
1.9775e-10
2.07292e-10
2.17149e-10
2.27342e-10
2.37883e-10
2.48779e-10
2.60046e-10
2.7171e-10
2.83817e-10
2.96404e-10
3.09533e-10
3.23224e-10
3.37509e-10
3.52455e-10
3.68096e-10
3.84549e-10
4.01918e-10
4.20289e-10
4.3988e-10
4.60638e-10
4.83435e-10
5.0668e-10
5.35606e-10
5.59017e-10
6.03708e-10
6.17368e-10
6.96801e-10
7.03371e-10
8.1045e-10
8.32128e-10
9.95755e-10
1.03538e-09
1.32307e-09
1.42743e-09
2.00623e-09
2.33628e-09
3.66698e-09
4.96225e-09
8.19206e-09
1.49421e-08
2.99385e-08
2.0956e-07
0.24179
0.014564
0.00154053
0.00083473
0.000837649
0.000959885
0.00120421
0.00157999
0.00203312
0.0026569
0.00361164
0.00498424
0.00699262
0.00977303
0.0136683
0.0188625
0.0254217
0.033171
0.0413219
0.0488433
0.0547036
0.0590905
0.0618574
0.0629947
0.0631716
0.0616006
0.0590828
0.0537801
0.0492056
0.043324
0.0376314
0.0320587
0.0266968
0.0219418
0.0178277
0.0142101
0.011161
0.00867457
0.00670244
0.0051742
0.00401098
0.00313433
0.00247435
0.00197393
0.00158969
0.00129034
0.0010539
0.000864934
0.000712469
0.000588508
0.000487117
0.000403792
0.000335076
0.000278273
0.00023123
0.000192197
0.000159752
0.000132742
0.000110244
9.15047e-05
7.58949e-05
6.28871e-05
5.20446e-05
4.30112e-05
3.5494e-05
2.92459e-05
2.40572e-05
1.97524e-05
1.61863e-05
1.32381e-05
1.08051e-05
8.80054e-06
7.15197e-06
5.79919e-06
4.69191e-06
3.78756e-06
3.05039e-06
2.4508e-06
1.96438e-06
1.57086e-06
1.25327e-06
9.97497e-07
7.92e-07
6.2732e-07
4.95728e-07
3.90837e-07
3.07408e-07
2.41215e-07
1.88827e-07
1.47478e-07
1.14929e-07
8.93563e-08
6.93114e-08
5.36414e-08
4.14204e-08
3.19164e-08
2.45425e-08
1.88303e-08
1.44146e-08
1.1011e-08
8.39436e-09
6.38664e-09
4.84926e-09
3.67461e-09
2.77893e-09
2.09745e-09
1.58024e-09
1.18859e-09
8.92561e-10
6.69166e-10
5.00882e-10
3.74366e-10
2.7945e-10
2.08377e-10
1.55246e-10
1.15586e-10
8.60291e-11
6.4042e-11
4.77172e-11
3.56192e-11
2.66753e-11
2.00736e-11
1.52152e-11
1.1651e-11
9.04511e-12
7.14875e-12
5.77799e-12
4.79684e-12
4.1046e-12
3.62627e-12
3.3064e-12
3.10228e-12
2.98806e-12
2.93259e-12
2.9357e-12
2.9728e-12
3.03757e-12
3.12473e-12
3.22985e-12
3.34996e-12
3.48298e-12
3.62741e-12
3.78206e-12
3.946e-12
4.1188e-12
4.30047e-12
4.49139e-12
4.69172e-12
4.90216e-12
5.12298e-12
5.35447e-12
5.59797e-12
5.85392e-12
6.12416e-12
6.41061e-12
6.71466e-12
7.04057e-12
7.38743e-12
7.77186e-12
8.16442e-12
8.66428e-12
9.06542e-12
9.8607e-12
1.0123e-11
1.15462e-11
1.17921e-11
1.36396e-11
1.49585e-11
1.72122e-11
2.06702e-11
2.59591e-11
3.26993e-11
5.22174e-11
7.29874e-11
1.42139e-10
2.61074e-10
5.60095e-10
1.44315e-09
3.43835e-09
2.03314e-08
0.385583
0.0242736
0.00231955
0.00136948
0.00139675
0.00183899
0.0022374
0.00259771
0.00364727
0.00529573
0.0078255
0.0115542
0.0169263
0.0247146
0.0353216
0.049261
0.066251
0.0848202
0.0999742
0.107321
0.112061
0.114812
0.116005
0.115871
0.113965
0.110988
0.107032
0.0975819
0.0894521
0.0787904
0.0687665
0.0591437
0.050063
0.0419546
0.0350067
0.0282951
0.022206
0.0169977
0.0127842
0.00948807
0.00699884
0.00517226
0.00385817
0.00291935
0.00224488
0.00175306
0.00138721
0.0011093
0.000894108
0.000724855
0.00059017
0.000482042
0.000394657
0.000323687
0.000265826
0.000218504
0.000179716
0.000147873
0.000121701
0.000100163
8.24164e-05
6.77827e-05
5.57128e-05
4.57587e-05
3.75497e-05
3.07793e-05
2.51964e-05
2.05962e-05
1.68106e-05
1.36991e-05
1.1144e-05
9.04842e-06
7.33265e-06
5.93071e-06
4.78732e-06
3.85631e-06
3.09953e-06
2.48577e-06
1.98922e-06
1.58844e-06
1.26558e-06
1.00601e-06
7.97827e-07
6.31276e-07
4.9839e-07
3.92585e-07
3.08524e-07
2.41906e-07
1.89239e-07
1.4771e-07
1.15043e-07
8.93948e-08
6.93058e-08
5.36119e-08
4.13787e-08
3.1869e-08
2.44947e-08
1.8786e-08
1.4376e-08
1.09779e-08
8.36617e-09
6.36294e-09
4.82956e-09
3.65838e-09
2.76562e-09
2.0866e-09
1.57143e-09
1.18147e-09
8.86796e-10
6.6449e-10
4.97079e-10
3.71261e-10
2.76899e-10
2.06259e-10
1.53457e-10
1.14041e-10
8.46601e-11
6.27905e-11
4.65351e-11
3.44691e-11
2.55235e-11
1.88987e-11
1.39975e-11
1.03741e-11
7.69605e-12
5.71675e-12
4.25378e-12
3.17253e-12
2.37348e-12
1.78268e-12
1.3454e-12
1.02131e-12
7.80951e-13
6.02467e-13
4.70068e-13
3.7168e-13
2.98489e-13
2.44016e-13
2.03461e-13
1.73305e-13
1.50939e-13
1.34431e-13
1.22351e-13
1.13637e-13
1.0754e-13
1.03496e-13
1.0076e-13
9.98248e-14
9.96936e-14
1.00273e-13
1.0155e-13
1.03446e-13
1.05877e-13
1.08779e-13
1.12118e-13
1.15873e-13
1.20135e-13
1.24852e-13
1.30341e-13
1.36221e-13
1.44017e-13
1.51289e-13
1.64277e-13
1.7451e-13
1.96346e-13
2.24805e-13
2.54021e-13
3.48989e-13
4.35477e-13
6.95415e-13
1.20014e-12
2.43605e-12
6.11799e-12
1.38034e-11
4.07583e-11
1.03471e-10
2.78866e-10
8.01335e-10
1.98054e-09
6.14441e-09
0.519893
0.035701
0.00331542
0.00168539
0.00163157
0.00227179
0.00316749
0.00478291
0.00774186
0.0122535
0.0177253
0.025914
0.0382059
0.0567176
0.0827767
0.120443
0.155284
0.168443
0.173573
0.174534
0.16801
0.162827
0.162219
0.16255
0.16222
0.16214
0.160835
0.151155
0.136054
0.119685
0.103131
0.088501
0.0761946
0.0658048
0.0581484
0.0498947
0.0409748
0.0319175
0.0240279
0.0176796
0.0127078
0.00900794
0.0063649
0.00453632
0.00328894
0.00243642
0.00184489
0.0014244
0.00111713
0.000886585
0.000709772
0.000571721
0.00046246
0.000375215
0.00030514
0.000248579
0.000202727
0.00016543
0.000135032
0.000110234
8.99972e-05
7.34749e-05
5.99778e-05
4.89444e-05
3.99199e-05
3.25368e-05
2.64973e-05
2.15586e-05
1.75212e-05
1.42217e-05
1.15268e-05
9.32807e-06
7.53666e-06
6.07912e-06
4.89468e-06
3.93349e-06
3.15484e-06
2.52534e-06
2.01745e-06
1.6084e-06
1.27955e-06
1.0157e-06
8.04508e-07
6.35864e-07
5.01496e-07
3.94648e-07
3.09867e-07
2.42758e-07
1.89765e-07
1.48021e-07
1.15208e-07
8.94642e-08
6.93201e-08
5.35958e-08
4.13494e-08
3.18328e-08
2.44526e-08
1.87419e-08
1.43351e-08
1.09432e-08
8.33694e-09
6.33838e-09
4.80918e-09
3.64156e-09
2.75176e-09
2.07531e-09
1.56236e-09
1.17417e-09
8.80889e-10
6.59691e-10
4.93205e-10
3.6817e-10
2.74453e-10
2.04321e-10
1.51912e-10
1.12808e-10
8.36813e-11
6.20199e-11
4.59297e-11
3.399e-11
2.51406e-11
1.85912e-11
1.37506e-11
1.01756e-11
7.53576e-12
5.58599e-12
4.14588e-12
3.08239e-12
2.29693e-12
1.71616e-12
1.2859e-12
9.6655e-13
7.29266e-13
5.52749e-13
4.21207e-13
3.22906e-13
2.49202e-13
1.93787e-13
1.5194e-13
1.2019e-13
9.59544e-14
7.73266e-14
6.29141e-14
5.16975e-14
4.29629e-14
3.61431e-14
3.07684e-14
2.64787e-14
2.30034e-14
2.01767e-14
1.7878e-14
1.60238e-14
1.45201e-14
1.3273e-14
1.22011e-14
1.13004e-14
1.05365e-14
9.80916e-15
9.38143e-15
8.91771e-15
8.704e-15
8.73579e-15
9.14292e-15
1.00987e-14
1.2119e-14
1.65854e-14
2.5595e-14
4.83426e-14
1.00913e-13
2.40297e-13
6.36284e-13
1.56873e-12
4.75862e-12
1.1784e-11
3.41407e-11
9.40781e-11
2.38126e-10
6.70609e-10
1.68072e-09
4.23061e-09
0.694873
0.0493999
0.00349697
0.0019292
0.00261674
0.00427714
0.00647349
0.00998547
0.0142043
0.0213281
0.0329803
0.0515771
0.0814111
0.129614
0.191917
0.217885
0.226847
0.228058
0.216049
0.198252
0.190441
0.188712
0.191322
0.199511
0.209996
0.219191
0.222481
0.218459
0.200501
0.17611
0.145115
0.11749
0.0967881
0.0823967
0.0708817
0.062831
0.0563953
0.0497433
0.0412619
0.0315301
0.0227076
0.0159573
0.0109231
0.00742089
0.00507264
0.00352872
0.00251738
0.00184687
0.00139097
0.00107065
0.00083787
0.000663606
0.000530027
0.000425886
0.000343736
0.000278328
0.000225835
0.000183432
0.000149004
0.000121028
9.82918e-05
7.98045e-05
6.47665e-05
5.25379e-05
4.25999e-05
3.45268e-05
2.79693e-05
2.26436e-05
1.83195e-05
1.48075e-05
1.19555e-05
9.64114e-06
7.76447e-06
6.24408e-06
5.01359e-06
4.01894e-06
3.21617e-06
2.56921e-06
2.04865e-06
1.63041e-06
1.29494e-06
1.02644e-06
8.11957e-07
6.41003e-07
5.05002e-07
3.96984e-07
3.11407e-07
2.43751e-07
1.90387e-07
1.48399e-07
1.15419e-07
8.95681e-08
6.93543e-08
5.35875e-08
4.13221e-08
3.18011e-08
2.44192e-08
1.8706e-08
1.42991e-08
1.09097e-08
8.30707e-09
6.31212e-09
4.78689e-09
3.62317e-09
2.73694e-09
2.06354e-09
1.55302e-09
1.16666e-09
8.7475e-10
6.54654e-10
4.89105e-10
3.64879e-10
2.71835e-10
2.02241e-10
1.50257e-10
1.11493e-10
8.26442e-11
6.12077e-11
4.52956e-11
3.34933e-11
2.47492e-11
1.82815e-11
1.35056e-11
9.98219e-12
7.38293e-12
5.46513e-12
4.05058e-12
3.00796e-12
2.23949e-12
1.6721e-12
1.2519e-12
9.39938e-13
7.08138e-13
5.35849e-13
4.07705e-13
3.12148e-13