/*--------------------------------*- C++ -*----------------------------------*\
| =========                 |                                                 |
| \\      /  F ield         | OpenFOAM: The Open Source CFD Toolbox           |
|  \\    /   O peration     | Version:  2.1.x                                 |
|   \\  /    A nd           | Web:      www.OpenFOAM.org                      |
|    \\/     M anipulation  |                                                 |
\*---------------------------------------------------------------------------*/
FoamFile
{
    version     2.0;
    format      ascii;
    class       volScalarField;
    location    "0.005";
    object      nuSgs;
}
// * * * * * * * * * * * * * * * * * * * * * * * * * * * * * * * * * * * * * //

dimensions      [0 2 -1 0 0 0 0];

internalField   nonuniform List<scalar> 
12225
(
0.000198748
0.000195944
0.000168356
0.000138435
0.000119223
0.000107468
9.98741e-05
9.30149e-05
8.74459e-05
8.30399e-05
7.99547e-05
7.78705e-05
7.50214e-05
7.30014e-05
7.04889e-05
6.95913e-05
6.79913e-05
6.86532e-05
0.000108524
0.000153692
0.000156237
0.0001487
0.000136509
0.00012595
0.000117486
0.000109256
0.000102375
9.63222e-05
9.07605e-05
8.69054e-05
8.32227e-05
7.98399e-05
7.7026e-05
7.37621e-05
7.08402e-05
6.86878e-05
3.2617e-05
8.02807e-05
9.68128e-05
0.000108732
0.000109667
0.000106552
0.000101722
9.70989e-05
9.35555e-05
8.90301e-05
8.31193e-05
7.75346e-05
7.39959e-05
7.10733e-05
6.90163e-05
6.6169e-05
6.27301e-05
5.98283e-05
7.64883e-06
2.93681e-05
4.39675e-05
5.75898e-05
6.60262e-05
6.68777e-05
6.5056e-05
6.36719e-05
6.37831e-05
6.33462e-05
6.17801e-05
5.88694e-05
5.49372e-05
5.24862e-05
5.07599e-05
4.8878e-05
4.66635e-05
4.47928e-05
1.59855e-06
8.39912e-06
1.47281e-05
2.14848e-05
3.09265e-05
3.38458e-05
3.34305e-05
3.30057e-05
3.33759e-05
3.48981e-05
3.49895e-05
3.41777e-05
3.27119e-05
3.06001e-05
2.90948e-05
2.76375e-05
2.54843e-05
2.48713e-05
4.81364e-07
2.14635e-06
4.08792e-06
6.44552e-06
1.13184e-05
1.43541e-05
1.43124e-05
1.37672e-05
1.33705e-05
1.35022e-05
1.5245e-05
1.58183e-05
1.54714e-05
1.48219e-05
1.35806e-05
1.21822e-05
1.12608e-05
1.12059e-05
4.29458e-07
6.79675e-07
1.10851e-06
1.73264e-06
3.53773e-06
5.05301e-06
5.01801e-06
4.51538e-06
3.94924e-06
3.92179e-06
4.84427e-06
5.97963e-06
6.11053e-06
5.94216e-06
5.4398e-06
4.65965e-06
4.21368e-06
4.18348e-06
4.37781e-07
6.37087e-07
6.21142e-07
6.36491e-07
9.753e-07
1.48103e-06
1.48438e-06
1.33605e-06
1.12718e-06
1.09657e-06
1.28996e-06
1.78211e-06
1.88763e-06
1.85051e-06
1.75231e-06
1.50737e-06
1.30604e-06
1.28659e-06
4.87355e-07
5.97833e-07
5.96577e-07
6.02073e-07
6.47971e-07
8.16332e-07
8.58107e-07
8.30274e-07
7.51205e-07
6.91056e-07
6.81702e-07
7.37608e-07
7.72526e-07
7.70089e-07
7.50555e-07
7.04243e-07
6.51058e-07
6.49523e-07
4.76159e-07
4.53205e-07
5.00395e-07
6.50447e-07
7.65661e-07
7.8407e-07
7.54616e-07
6.77477e-07
5.77693e-07
5.20309e-07
4.98522e-07
4.93338e-07
5.10839e-07
5.40809e-07
5.45976e-07
5.42188e-07
5.36285e-07
5.45476e-07
4.57548e-07
4.54916e-07
4.59358e-07
4.92445e-07
6.18896e-07
7.45418e-07
7.48342e-07
7.11647e-07
6.20634e-07
5.64836e-07
5.46733e-07
5.40041e-07
5.55187e-07
5.76074e-07
5.82213e-07
5.78109e-07
5.68346e-07
5.93897e-07
5.0839e-07
5.09341e-07
5.05005e-07
5.43132e-07
7.02958e-07
7.64715e-07
7.44845e-07
6.70907e-07
6.00712e-07
5.79959e-07
5.81859e-07
6.45491e-07
8.39765e-07
9.68428e-07
1.02594e-06
1.03972e-06
1.01968e-06
9.84904e-07
5.65439e-07
5.78607e-07
6.01258e-07
6.21132e-07
6.31176e-07
6.27699e-07
6.16807e-07
6.02447e-07
5.80272e-07
5.52709e-07
5.36552e-07
5.274e-07
5.35622e-07
5.49619e-07
5.47265e-07
5.48271e-07
5.39586e-07
5.51603e-07
6.38434e-07
6.92113e-07
6.68705e-07
6.23634e-07
5.85539e-07
5.66304e-07
5.55272e-07
5.4614e-07
5.40486e-07
5.45457e-07
5.81048e-07
6.11446e-07
6.1628e-07
6.07731e-07
5.95458e-07
5.52752e-07
5.40395e-07
5.45109e-07
6.89584e-07
6.56984e-07
6.55091e-07
6.82378e-07
6.78199e-07
6.57104e-07
6.26929e-07
6.12259e-07
6.0677e-07
6.21788e-07
6.30152e-07
6.41651e-07
6.53632e-07
6.54893e-07
6.4139e-07
6.29595e-07
6.89292e-07
9.28197e-07
6.89765e-07
6.78239e-07
7.06236e-07
7.02187e-07
6.80036e-07
6.59462e-07
6.48965e-07
6.55219e-07
6.59061e-07
6.55354e-07
6.5248e-07
6.54742e-07
6.74056e-07
7.12087e-07
7.42836e-07
7.56025e-07
7.52614e-07
7.67143e-07
7.56747e-07
7.38688e-07
7.38175e-07
7.25438e-07
7.06444e-07
6.85804e-07
6.70586e-07
6.57683e-07
6.4587e-07
6.37279e-07
6.42983e-07
6.94645e-07
7.40472e-07
7.45263e-07
7.31947e-07
7.09323e-07
6.68554e-07
6.77943e-07
7.55724e-07
7.37236e-07
7.21278e-07
7.2295e-07
7.96658e-07
8.6622e-07
8.55562e-07
8.21541e-07
7.50529e-07
6.93056e-07
6.58166e-07
6.31961e-07
6.10209e-07
5.94254e-07
5.82263e-07
5.71498e-07
5.64211e-07
5.60974e-07
6.91586e-07
6.98292e-07
6.90902e-07
6.80374e-07
6.78753e-07
7.18228e-07
7.43197e-07
7.313e-07
7.06066e-07
6.54855e-07
6.19889e-07
6.00034e-07
5.85526e-07
5.73777e-07
5.65839e-07
5.70706e-07
5.77328e-07
5.73905e-07
7.24276e-07
7.61324e-07
7.46201e-07
7.005e-07
6.50462e-07
6.28741e-07
6.18914e-07
6.25876e-07
6.831e-07
7.20348e-07
7.1503e-07
6.96708e-07
6.56075e-07
6.04004e-07
5.74472e-07
5.60322e-07
5.50113e-07
5.45866e-07
6.44498e-07
7.09e-07
7.37214e-07
7.27716e-07
7.04626e-07
6.64635e-07
6.3592e-07
6.20649e-07
6.0891e-07
6.035e-07
5.99276e-07
5.90212e-07
5.78648e-07
5.66055e-07
5.49636e-07
5.29637e-07
5.12323e-07
4.97786e-07
5.95528e-07
5.87442e-07
5.93602e-07
6.25635e-07
6.44124e-07
6.59576e-07
7.00176e-07
7.49678e-07
7.61906e-07
7.4849e-07
7.30741e-07
7.10039e-07
6.91051e-07
6.66007e-07
6.32668e-07
6.07493e-07
5.9267e-07
5.80051e-07
5.4213e-07
5.55029e-07
6.09782e-07
6.19839e-07
6.23528e-07
6.45092e-07
7.13914e-07
7.53208e-07
7.52883e-07
7.4862e-07
7.57464e-07
7.96529e-07
8.97161e-07
9.42135e-07
9.84505e-07
1.00921e-06
1.05704e-06
1.11544e-06
5.17695e-07
5.15012e-07
5.51899e-07
6.70233e-07
8.91739e-07
1.31415e-06
1.68747e-06
1.78215e-06
1.81599e-06
1.89871e-06
2.10858e-06
2.4897e-06
2.94071e-06
3.1174e-06
3.35615e-06
3.47924e-06
3.73557e-06
4.02623e-06
5.83093e-07
8.05505e-07
1.31237e-06
2.12353e-06
3.16863e-06
4.64454e-06
6.12545e-06
6.71058e-06
7.01411e-06
7.40751e-06
8.13783e-06
8.85745e-06
9.59332e-06
9.99274e-06
1.04389e-05
1.07581e-05
1.13091e-05
1.18136e-05
5.87914e-07
2.73753e-06
6.06286e-06
9.79825e-06
1.36149e-05
1.72142e-05
2.003e-05
2.1509e-05
2.24262e-05
2.31488e-05
2.39429e-05
2.47547e-05
2.53474e-05
2.57664e-05
2.60419e-05
2.63074e-05
2.64892e-05
2.67905e-05
2.44512e-06
1.28174e-05
2.51823e-05
3.59434e-05
4.30846e-05
4.80614e-05
5.11282e-05
5.25919e-05
5.32418e-05
5.3409e-05
5.3436e-05
5.3318e-05
5.28124e-05
5.21189e-05
5.13191e-05
5.04354e-05
4.94062e-05
4.83161e-05
1.42353e-05
4.95392e-05
8.10935e-05
9.1968e-05
9.8626e-05
0.000101593
0.000101277
9.91259e-05
9.67407e-05
9.4067e-05
9.13217e-05
8.8539e-05
8.55266e-05
8.26209e-05
7.94383e-05
7.67888e-05
7.36218e-05
7.1175e-05
6.77769e-05
0.000148733
0.000168127
0.00016497
0.000158847
0.000149639
0.000140464
0.000132077
0.000124405
0.000117399
0.000110954
0.000104973
9.93896e-05
9.41876e-05
8.92303e-05
8.48152e-05
8.02138e-05
7.68627e-05
0.000209518
0.000242829
0.000222688
0.000187831
0.000161547
0.000142692
0.000128729
0.000117853
0.000108776
0.000100948
9.39521e-05
8.78043e-05
8.22448e-05
7.73282e-05
7.2681e-05
6.84905e-05
6.42511e-05
6.06932e-05
9.68752e-07
1.06477e-06
1.27341e-06
1.59926e-06
2.03634e-06
2.55988e-06
3.16202e-06
3.82859e-06
4.54217e-06
5.28736e-06
6.04756e-06
6.80724e-06
7.55279e-06
8.2707e-06
8.95031e-06
9.58195e-06
1.01601e-05
1.06808e-05
1.11404e-05
1.1543e-05
1.18873e-05
1.21933e-05
1.24772e-05
1.27467e-05
1.30146e-05
1.32963e-05
1.36027e-05
1.39453e-05
1.43385e-05
1.47944e-05
1.53234e-05
1.59357e-05
1.664e-05
1.74438e-05
1.83521e-05
1.93686e-05
2.0495e-05
2.17319e-05
2.3078e-05
2.45295e-05
2.60814e-05
2.77273e-05
2.946e-05
3.1271e-05
3.31509e-05
3.50895e-05
3.70767e-05
3.91023e-05
4.11558e-05
4.32268e-05
4.53058e-05
4.73837e-05
4.94518e-05
5.15018e-05
5.35268e-05
5.55206e-05
5.7478e-05
5.93937e-05
6.12638e-05
6.30855e-05
6.48567e-05
6.65755e-05
6.82404e-05
6.98512e-05
7.14081e-05
7.29117e-05
7.43622e-05
7.57613e-05
7.71096e-05
7.84107e-05
7.96633e-05
8.08707e-05
8.20409e-05
8.31524e-05
8.42138e-05
8.52348e-05
8.62208e-05
8.71753e-05
8.81008e-05
8.89994e-05
8.98728e-05
9.07228e-05
9.15513e-05
9.23591e-05
9.31478e-05
9.3919e-05
9.46734e-05
9.54116e-05
9.61345e-05
9.68434e-05
9.75392e-05
9.82231e-05
9.88958e-05
9.95578e-05
0.00010021
0.000100852
0.000101486
0.000102112
0.00010273
0.000103341
0.000103945
0.000104543
0.000105135
0.000105722
0.000106303
0.00010688
0.000107452
0.00010802
0.000108583
0.000109143
0.0001097
0.000110252
0.000110802
0.000111349
0.000111893
0.000112435
0.000112974
0.000113511
0.000114045
0.000114578
0.000115108
0.000115636
0.000116162
0.000116686
0.000117208
0.000117729
0.000118248
0.000118765
0.000119281
0.000119795
0.000120307
0.000120818
0.000121328
0.000121836
0.000122342
0.000122847
0.000123351
0.000123852
0.000124352
0.000124851
0.000125348
0.000125843
0.000126337
0.00012683
0.00012732
0.000127809
0.000128296
0.000128782
0.000129266
0.000129747
0.000130227
0.000130705
0.00013118
0.000131653
0.000132123
0.000132591
0.000133056
0.000133518
0.000133975
0.000134429
0.000134878
0.000135321
0.000135757
0.000136187
0.000136602
0.000137021
0.00013739
0.000137825
0.000138064
0.000138572
0.000138563
0.000139184
0.000138839
0.000139526
0.000138839
0.000139203
0.000138576
0.000137306
0.000136913
0.000131723
2.49377e-06
1.27815e-06
1.07732e-06
1.0915e-06
1.19509e-06
1.33347e-06
1.4878e-06
1.65132e-06
1.81349e-06
1.96408e-06
2.09395e-06
2.19757e-06
2.26414e-06
2.29052e-06
2.29415e-06
2.26279e-06
2.21595e-06
2.17723e-06
2.15628e-06
2.18415e-06
2.29267e-06
2.42769e-06
2.56745e-06
2.71299e-06
2.86313e-06
3.01715e-06
3.1759e-06
3.33885e-06
3.50611e-06
3.6777e-06
3.85484e-06
4.03886e-06
4.23104e-06
4.4331e-06
4.64672e-06
4.87381e-06
5.11693e-06
5.37851e-06
5.6608e-06
5.96595e-06
6.29609e-06
6.65257e-06
7.03652e-06
7.44906e-06
7.89095e-06
8.36269e-06
8.86447e-06
9.39619e-06
9.95739e-06
1.05474e-05
1.11652e-05
1.18096e-05
1.24795e-05
1.31731e-05
1.38887e-05
1.46247e-05
1.53791e-05
1.615e-05
1.69355e-05
1.77334e-05
1.85418e-05
1.93591e-05
2.0183e-05
2.10118e-05
2.18446e-05
2.26769e-05
2.35144e-05
2.43426e-05
2.51776e-05
2.60036e-05
2.68202e-05
2.76511e-05
2.8442e-05
2.92602e-05
3.01059e-05
3.09655e-05
3.18289e-05
3.26915e-05
3.3547e-05
3.43941e-05
3.52289e-05
3.60514e-05
3.68604e-05
3.76559e-05
3.84387e-05
3.92053e-05
3.99562e-05
4.06918e-05
4.14134e-05
4.21223e-05
4.28193e-05
4.35052e-05
4.41814e-05
4.48485e-05
4.55071e-05
4.61581e-05
4.68024e-05
4.74401e-05
4.80721e-05
4.86988e-05
4.93207e-05
4.99383e-05
5.05522e-05
5.11629e-05
5.17708e-05
5.23762e-05
5.29793e-05
5.35808e-05
5.41811e-05
5.47806e-05
5.53794e-05
5.59778e-05
5.65759e-05
5.71741e-05
5.77729e-05
5.83726e-05
5.89732e-05
5.95749e-05
6.01779e-05
6.07825e-05
6.1389e-05
6.19975e-05
6.26084e-05
6.32216e-05
6.38372e-05
6.44554e-05
6.50763e-05
6.57001e-05
6.63271e-05
6.69574e-05
6.7591e-05
6.8228e-05
6.88683e-05
6.95122e-05
7.01597e-05
7.0811e-05
7.14663e-05
7.21254e-05
7.27883e-05
7.34552e-05
7.4126e-05
7.48008e-05
7.54799e-05
7.61631e-05
7.68504e-05
7.75419e-05
7.82375e-05
7.89373e-05
7.96413e-05
8.03496e-05
8.10623e-05
8.17792e-05
8.25004e-05
8.32258e-05
8.39555e-05
8.46894e-05
8.54275e-05
8.617e-05
8.69168e-05
8.76678e-05
8.84236e-05
8.91826e-05
8.99487e-05
9.07133e-05
9.14951e-05
9.22551e-05
9.30717e-05
9.37994e-05
9.46904e-05
9.53463e-05
9.63371e-05
9.69509e-05
9.80324e-05
9.85928e-05
9.9833e-05
0.000100307
0.00010189
0.000102249
0.000103732
0.000107867
4.76786e-06
1.75484e-06
1.13507e-06
1.03903e-06
1.02988e-06
1.03652e-06
1.04757e-06
1.05882e-06
1.06819e-06
1.07601e-06
1.08172e-06
1.0864e-06
1.09156e-06
1.10006e-06
1.11568e-06
1.14111e-06
1.17836e-06
1.22954e-06
1.29473e-06
1.37132e-06
1.45891e-06
1.55113e-06
1.64554e-06
1.74034e-06
1.83243e-06
1.91968e-06
2.00139e-06
2.07566e-06
2.14127e-06
2.19664e-06
2.24181e-06
2.27689e-06
2.30138e-06
2.31625e-06
2.32185e-06
2.31649e-06
2.30274e-06
2.28162e-06
2.25333e-06
2.2181e-06
2.17635e-06
2.13187e-06
2.08792e-06
2.04614e-06
2.0082e-06
1.97575e-06
1.95031e-06
1.93333e-06
1.92612e-06
1.9296e-06
1.94504e-06
1.97278e-06
2.0132e-06
2.06636e-06
2.13206e-06
2.21011e-06
2.30017e-06
2.4015e-06
2.51351e-06
2.63572e-06
2.7674e-06
2.90811e-06
3.05716e-06
3.21425e-06
3.37857e-06
3.54957e-06
3.72788e-06
3.91042e-06
4.10033e-06
4.29437e-06
4.49212e-06
4.69629e-06
4.90312e-06
5.11139e-06
5.32841e-06
5.54514e-06
5.77561e-06
6.00059e-06
6.24218e-06
6.47577e-06
6.7235e-06
6.96625e-06
7.21423e-06
7.46934e-06
7.7125e-06
7.97886e-06
8.2626e-06
8.55955e-06
8.86736e-06
9.18219e-06
9.50228e-06
9.82599e-06
1.01497e-05
1.04724e-05
1.07931e-05
1.11118e-05
1.14282e-05
1.1742e-05
1.2053e-05
1.23612e-05
1.26667e-05
1.29695e-05
1.32698e-05
1.35676e-05
1.38633e-05
1.4157e-05
1.44488e-05
1.47389e-05
1.50278e-05
1.53157e-05
1.56029e-05
1.58894e-05
1.61754e-05
1.64611e-05
1.67469e-05
1.70332e-05
1.732e-05
1.76075e-05
1.7896e-05
1.81856e-05
1.84767e-05
1.87695e-05
1.90642e-05
1.93609e-05
1.96598e-05
1.99611e-05
2.0265e-05
2.05716e-05
2.08812e-05
2.11939e-05
2.15099e-05
2.18293e-05
2.21522e-05
2.24789e-05
2.28093e-05
2.31439e-05
2.34826e-05
2.38256e-05
2.4173e-05
2.45249e-05
2.48813e-05
2.52426e-05
2.56089e-05
2.59802e-05
2.63567e-05
2.67384e-05
2.71254e-05
2.75178e-05
2.79159e-05
2.83199e-05
2.87297e-05
2.91457e-05
2.95677e-05
2.99961e-05
3.04308e-05
3.08723e-05
3.13205e-05
3.17759e-05
3.22387e-05
3.27086e-05
3.31881e-05
3.36719e-05
3.41749e-05
3.4664e-05
3.5214e-05
3.56751e-05
3.63315e-05
3.6706e-05
3.75135e-05
3.78646e-05
3.87787e-05
3.90889e-05
4.02425e-05
4.04935e-05
4.19053e-05
4.22088e-05
4.39592e-05
4.45514e-05
4.62783e-05
5.21752e-05
7.93621e-06
2.50949e-06
1.32567e-06
1.0925e-06
1.06719e-06
1.068e-06
1.07316e-06
1.08035e-06
1.0885e-06
1.10031e-06
1.11718e-06
1.14095e-06
1.17414e-06
1.21911e-06
1.2765e-06
1.34801e-06
1.43126e-06
1.52538e-06
1.62974e-06
1.74078e-06
1.85575e-06
1.97122e-06
2.08497e-06
2.19455e-06
2.29568e-06
2.38572e-06
2.46177e-06
2.52453e-06
2.57196e-06
2.60054e-06
2.61723e-06
2.61897e-06
2.60696e-06
2.58222e-06
2.54607e-06
2.50019e-06
2.44596e-06
2.38469e-06
2.31761e-06
2.24622e-06
2.172e-06
2.09492e-06
2.01504e-06
1.93309e-06
1.84985e-06
1.76611e-06
1.68249e-06
1.5995e-06
1.51767e-06
1.43752e-06
1.35932e-06
1.28335e-06
1.21009e-06
1.14017e-06
1.07348e-06
1.00909e-06
9.46849e-07
8.87935e-07
8.32904e-07
7.82295e-07
7.36102e-07
6.94349e-07
6.5792e-07
6.26469e-07
5.99634e-07
5.78716e-07
5.63444e-07
5.5238e-07
5.46382e-07
5.45887e-07
5.49224e-07
5.56499e-07
5.67423e-07
5.80921e-07
5.97856e-07
6.15998e-07
6.37889e-07
6.59865e-07
6.85401e-07
7.1112e-07
7.39308e-07
7.67887e-07
7.98956e-07
8.29313e-07
8.63229e-07
8.95533e-07
9.30051e-07
9.69649e-07
1.00491e-06
1.0483e-06
1.09368e-06
1.13261e-06
1.18512e-06
1.25013e-06
1.32418e-06
1.40455e-06
1.48867e-06
1.57476e-06
1.66175e-06
1.74893e-06
1.83584e-06
1.92215e-06
2.00769e-06
2.09237e-06
2.17613e-06
2.25896e-06
2.34086e-06
2.42185e-06
2.50201e-06
2.58143e-06
2.66017e-06
2.73826e-06
2.81575e-06
2.89271e-06
2.96924e-06
3.04545e-06
3.12142e-06
3.19721e-06
3.27291e-06
3.34859e-06
3.42438e-06
3.50036e-06
3.57662e-06
3.65322e-06
3.73023e-06
3.80774e-06
3.88583e-06
3.96458e-06
4.0441e-06
4.12445e-06
4.2057e-06
4.2879e-06
4.37113e-06
4.45548e-06
4.54104e-06
4.62788e-06
4.71609e-06
4.80571e-06
4.8968e-06
4.98942e-06
5.08365e-06
5.1796e-06
5.27736e-06
5.37699e-06
5.47853e-06
5.58204e-06
5.68758e-06
5.79523e-06
5.90514e-06
6.01742e-06
6.13215e-06
6.24941e-06
6.36928e-06
6.49188e-06
6.61731e-06
6.74577e-06
6.87742e-06
7.01237e-06
7.15124e-06
7.29309e-06
7.44142e-06
7.58895e-06
7.7539e-06
7.89828e-06
8.10159e-06
8.21692e-06
8.49334e-06
8.58244e-06
8.91244e-06
9.00438e-06
9.44328e-06
9.49444e-06
1.01157e-05
1.01277e-05
1.09827e-05
1.10517e-05
1.21163e-05
1.25165e-05
1.36491e-05
1.76985e-05
1.21395e-05
3.51607e-06
1.62654e-06
1.22467e-06
1.17818e-06
1.18012e-06
1.19578e-06
1.21634e-06
1.24429e-06
1.28237e-06
1.33245e-06
1.39666e-06
1.47516e-06
1.56818e-06
1.67623e-06
1.79948e-06
1.93581e-06
2.08331e-06
2.24174e-06
2.40849e-06
2.58033e-06
2.74954e-06
2.90753e-06
3.05119e-06
3.17269e-06
3.27189e-06
3.34001e-06
3.37949e-06
3.40073e-06
3.39483e-06
3.36682e-06
3.3215e-06
3.26039e-06
3.18685e-06
3.10296e-06
3.01053e-06
2.91164e-06
2.80751e-06
2.69932e-06
2.58835e-06
2.47586e-06
2.3629e-06
2.25016e-06
2.13834e-06
2.02807e-06
1.91993e-06
1.81436e-06
1.71166e-06
1.61197e-06
1.51549e-06
1.42254e-06
1.33328e-06
1.24748e-06
1.16495e-06
1.08604e-06
1.01146e-06
9.41346e-07
8.75097e-07
8.12407e-07
7.53131e-07
6.97143e-07
6.44349e-07
5.94686e-07
5.48053e-07
5.04344e-07
4.63488e-07
4.25371e-07
3.89869e-07
3.56932e-07
3.26471e-07
2.98281e-07
2.72248e-07
2.48346e-07
2.26485e-07
2.06641e-07
1.88659e-07
1.72596e-07
1.58232e-07
1.45655e-07
1.34749e-07
1.25376e-07
1.17668e-07
1.11433e-07
1.06372e-07
1.0303e-07
1.0062e-07
9.88429e-08
9.88489e-08
9.91116e-08
1.00096e-07
1.02546e-07
1.04626e-07
1.06874e-07
1.11489e-07
1.15959e-07
1.20384e-07
1.28926e-07
1.40597e-07
1.542e-07
1.68938e-07
1.8432e-07
2.00049e-07
2.15943e-07
2.31885e-07
2.47803e-07
2.63649e-07
2.79387e-07
2.94994e-07
3.10457e-07
3.25773e-07
3.40943e-07
3.55961e-07
3.70824e-07
3.85533e-07
4.00094e-07
4.14523e-07
4.28832e-07
4.43035e-07
4.57142e-07
4.71169e-07
4.8513e-07
4.9904e-07
5.12914e-07
5.2677e-07
5.40627e-07
5.54501e-07
5.6841e-07
5.82368e-07
5.96391e-07
6.10497e-07
6.247e-07
6.39018e-07
6.53468e-07
6.68071e-07
6.82846e-07
6.97808e-07
7.12975e-07
7.2836e-07
7.43977e-07
7.59844e-07
7.75979e-07
7.92409e-07
8.09155e-07
8.26227e-07
8.43637e-07
8.61397e-07
8.79529e-07
8.98053e-07
9.17008e-07
9.36419e-07
9.5631e-07
9.76699e-07
9.9761e-07
1.01908e-06
1.04116e-06
1.06388e-06
1.08731e-06
1.11147e-06
1.13662e-06
1.16231e-06
1.19006e-06
1.21665e-06
1.24993e-06
1.27381e-06
1.32087e-06
1.33366e-06
1.40311e-06
1.41375e-06
1.49691e-06
1.50633e-06
1.63025e-06
1.6293e-06
1.8152e-06
1.80918e-06
2.08011e-06
2.11417e-06
2.45925e-06
2.64537e-06
3.06664e-06
4.79536e-06
1.72634e-05
4.70777e-06
1.98503e-06
1.41351e-06
1.35725e-06
1.37157e-06
1.41459e-06
1.46634e-06
1.52834e-06
1.60945e-06
1.70884e-06
1.83248e-06
1.97701e-06
2.14467e-06
2.33599e-06
2.55115e-06
2.79115e-06
3.05277e-06
3.33358e-06
3.62841e-06
3.93101e-06
4.2193e-06
4.47299e-06
4.68463e-06
4.83885e-06
4.93366e-06
4.97965e-06
4.9638e-06
4.89794e-06
4.79103e-06
4.65131e-06
4.48869e-06
4.30891e-06
4.12115e-06
3.93044e-06
3.7395e-06
3.55137e-06
3.3675e-06
3.18863e-06
3.01532e-06
2.8479e-06
2.68652e-06
2.53136e-06
2.38249e-06
2.23994e-06
2.10365e-06
1.97349e-06
1.84936e-06
1.73123e-06
1.619e-06
1.51243e-06
1.41128e-06
1.31546e-06
1.22484e-06
1.13918e-06
1.05817e-06
9.81624e-07
9.09408e-07
8.41401e-07
7.77466e-07
7.17457e-07
6.61215e-07
6.08566e-07
5.59351e-07
5.13408e-07
4.70581e-07
4.30734e-07
3.93723e-07
3.59372e-07
3.27528e-07
2.98103e-07
2.70976e-07
2.45992e-07
2.23008e-07
2.01892e-07
1.82524e-07
1.6479e-07
1.48577e-07
1.3378e-07
1.20299e-07
1.08039e-07
9.69107e-08
8.68233e-08
7.76918e-08
6.94536e-08
6.20333e-08
5.53584e-08
4.93853e-08
4.40365e-08
3.92675e-08
3.50576e-08
3.13209e-08
2.80361e-08
2.5222e-08
2.2743e-08
2.07131e-08
1.90624e-08
1.76802e-08
1.71274e-08
1.71529e-08
1.79149e-08
1.91948e-08
2.08367e-08
2.27303e-08
2.47956e-08
2.69766e-08
2.92344e-08
3.15417e-08
3.38793e-08
3.62344e-08
3.85979e-08
4.09618e-08
4.33196e-08
4.56662e-08
4.79982e-08
5.03145e-08
5.26146e-08
5.48985e-08
5.71658e-08
5.9417e-08
6.16525e-08
6.38732e-08
6.60807e-08
6.82773e-08
7.04662e-08
7.26494e-08
7.48286e-08
7.70053e-08
7.91817e-08
8.13603e-08
8.35442e-08
8.57361e-08
8.79395e-08
9.01573e-08
9.23925e-08
9.46471e-08
9.69239e-08
9.92256e-08
1.01555e-07
1.03916e-07
1.06311e-07
1.08746e-07
1.11223e-07
1.13743e-07
1.16308e-07
1.18921e-07
1.21587e-07
1.24309e-07
1.27095e-07
1.29948e-07
1.32872e-07
1.35871e-07
1.38948e-07
1.42114e-07
1.45376e-07
1.48743e-07
1.52231e-07
1.55835e-07
1.59627e-07
1.63476e-07
1.6779e-07
1.71699e-07
1.77263e-07
1.80345e-07
1.88962e-07
1.90182e-07
2.02298e-07
2.03908e-07
2.19255e-07
2.20582e-07
2.44446e-07
2.4492e-07
2.81912e-07
2.84061e-07
3.38729e-07
3.55736e-07
4.30526e-07
4.92663e-07
6.04977e-07
1.15475e-06
2.25166e-05
5.73442e-06
2.19446e-06
1.59197e-06
1.56472e-06
1.60324e-06
1.70341e-06
1.80772e-06
1.93126e-06
2.08091e-06
2.27498e-06
2.50179e-06
2.77237e-06
3.08831e-06
3.45511e-06
3.87419e-06
4.34707e-06
4.86867e-06
5.42503e-06
5.99794e-06
6.56146e-06
7.0687e-06
7.48358e-06
7.79064e-06
7.97356e-06
8.06485e-06
8.03186e-06
7.86869e-06
7.63604e-06
7.3246e-06
6.96286e-06
6.56924e-06
6.15277e-06
5.73947e-06
5.33922e-06
4.95666e-06
4.59675e-06
4.26163e-06
3.95143e-06
3.66551e-06
3.40219e-06
3.15943e-06
2.93508e-06
2.7272e-06
2.53412e-06
2.3545e-06
2.18728e-06
2.03151e-06
1.88626e-06
1.75067e-06
1.62403e-06
1.50576e-06
1.39528e-06
1.29209e-06
1.19565e-06
1.10554e-06
1.02135e-06
9.42753e-07
8.6941e-07
8.00986e-07
7.37174e-07
6.77706e-07
6.22339e-07
5.70837e-07
5.22978e-07
4.78554e-07
4.37367e-07
3.99222e-07
3.63937e-07
3.31342e-07
3.01274e-07
2.73579e-07
2.48102e-07
2.24696e-07
2.03225e-07
1.83563e-07
1.65586e-07
1.49172e-07
1.34206e-07
1.20584e-07
1.08203e-07
9.69676e-08
8.67874e-08
7.75771e-08
6.9257e-08
6.17533e-08
5.49947e-08
4.8916e-08
4.34559e-08
3.85578e-08
3.41716e-08
3.02492e-08
2.67457e-08
2.36213e-08
2.08381e-08
1.83635e-08
1.61669e-08
1.42194e-08
1.24953e-08
1.09738e-08
9.64235e-09
8.4867e-09
7.49575e-09
6.66195e-09
5.98073e-09
5.44846e-09
5.06219e-09
4.8141e-09
4.69308e-09
4.68234e-09
4.76169e-09
4.91132e-09
5.11354e-09
5.35362e-09
5.62021e-09
5.90521e-09
6.20274e-09
6.50865e-09
6.81992e-09
7.13452e-09
7.45094e-09
7.76817e-09
8.08555e-09
8.4028e-09
8.71982e-09
9.03653e-09
9.35282e-09
9.66865e-09
9.98411e-09
1.02994e-08
1.0615e-08
1.0931e-08
1.1248e-08
1.15663e-08
1.18863e-08
1.22081e-08
1.25322e-08
1.28589e-08
1.31888e-08
1.35224e-08
1.38603e-08
1.42031e-08
1.45512e-08
1.49046e-08
1.52638e-08
1.5629e-08
1.60013e-08
1.63812e-08
1.67699e-08
1.71678e-08
1.75753e-08
1.79935e-08
1.84225e-08
1.88645e-08
1.93208e-08
1.97925e-08
2.02831e-08
2.07908e-08
2.13299e-08
2.18728e-08
2.25034e-08
2.30413e-08
2.39057e-08
2.42729e-08
2.56674e-08
2.58226e-08
2.76528e-08
2.79511e-08
3.04048e-08
3.07341e-08
3.45373e-08
3.50572e-08
4.10551e-08
4.2493e-08
5.17877e-08
5.68564e-08
7.07582e-08
8.73581e-08
1.13657e-07
2.6453e-07
2.97436e-05
7.64697e-06
2.84514e-06
1.9383e-06
1.86138e-06
1.97272e-06
2.10515e-06
2.2463e-06
2.48303e-06
2.78286e-06
3.14012e-06
3.5777e-06
4.10088e-06
4.72951e-06
5.46308e-06
6.31119e-06
7.26666e-06
8.29981e-06
9.36457e-06
1.03854e-05
1.13007e-05
1.20492e-05
1.26217e-05
1.2976e-05
1.31472e-05
1.31688e-05
1.29919e-05
1.25492e-05
1.20676e-05
1.14256e-05
1.07209e-05
9.96612e-06
9.16986e-06
8.39011e-06
7.64297e-06
6.93125e-06
6.26864e-06
5.66306e-06
5.11766e-06
4.63228e-06
4.20314e-06
3.82429e-06
3.48892e-06
3.19045e-06
2.92312e-06
2.6822e-06
2.46392e-06
2.26524e-06
2.08377e-06
1.91761e-06
1.76517e-06
1.6251e-06
1.49613e-06
1.37717e-06
1.26734e-06
1.16589e-06
1.07216e-06
9.85479e-07
9.05244e-07
8.30948e-07
7.6218e-07
6.98562e-07
6.39715e-07
5.85278e-07
5.34941e-07
4.88435e-07
4.4551e-07
4.05917e-07
3.69423e-07
3.35822e-07
3.04923e-07
2.76541e-07
2.50497e-07
2.26623e-07
2.04773e-07
1.84803e-07
1.66575e-07
1.49955e-07
1.34822e-07
1.21064e-07
1.08576e-07
9.72567e-08
8.70078e-08
7.77411e-08
6.93759e-08
6.18369e-08
5.50506e-08
4.895e-08
4.34722e-08
3.85612e-08
3.41656e-08
3.02354e-08
2.67263e-08
2.35974e-08
2.08109e-08
1.83329e-08
1.61329e-08
1.41816e-08
1.24523e-08
1.09222e-08
9.57036e-09
8.37734e-09
7.32582e-09
6.4003e-09
5.58678e-09
4.87282e-09
4.24757e-09
3.70135e-09
3.22551e-09
2.81238e-09
2.4554e-09
2.14903e-09
1.8886e-09
1.67015e-09
1.49022e-09
1.34574e-09
1.23379e-09
1.15127e-09
1.09504e-09
1.06074e-09
1.04588e-09
1.045e-09
1.05576e-09
1.07539e-09
1.10132e-09
1.13181e-09
1.16564e-09
1.20189e-09
1.23989e-09
1.27918e-09
1.31944e-09
1.36045e-09
1.40208e-09
1.44425e-09
1.48691e-09
1.53e-09
1.57353e-09
1.6175e-09
1.66196e-09
1.70697e-09
1.7526e-09
1.79891e-09
1.84592e-09
1.89364e-09
1.94209e-09
1.99136e-09
2.04158e-09
2.09283e-09
2.14529e-09
2.19899e-09
2.25397e-09
2.31041e-09
2.36835e-09
2.4281e-09
2.48989e-09
2.55389e-09
2.62066e-09
2.68986e-09
2.76396e-09
2.83804e-09
2.92684e-09
2.99871e-09
3.12611e-09
3.16985e-09
3.37824e-09
3.40419e-09
3.66435e-09
3.72385e-09
4.08581e-09
4.17806e-09
4.73656e-09
4.93339e-09
5.86494e-09
6.3459e-09
7.9686e-09
9.29443e-09
1.19674e-08
1.62011e-08
2.29828e-08
6.09263e-08
3.58659e-05
8.82822e-06
2.87648e-06
2.12802e-06
2.13929e-06
2.29843e-06
2.5841e-06
2.97316e-06
3.38321e-06
3.87953e-06
4.53959e-06
5.353e-06
6.36492e-06
7.55448e-06
8.97059e-06
1.05802e-05
1.23308e-05
1.41379e-05
1.58359e-05
1.72793e-05
1.83556e-05
1.91546e-05
1.96735e-05
1.99319e-05
2.00432e-05
1.98768e-05
1.95416e-05
1.87205e-05
1.79828e-05
1.69401e-05
1.58538e-05
1.46936e-05
1.34658e-05
1.22608e-05
1.11004e-05
9.95183e-06
8.85464e-06
7.83519e-06
6.9112e-06
6.09222e-06
5.38049e-06
4.77055e-06
4.25127e-06
3.80861e-06
3.4285e-06
3.09874e-06
2.80963e-06
2.55378e-06
2.32561e-06
2.12083e-06
1.93611e-06
1.76882e-06
1.61687e-06
1.47856e-06
1.35248e-06
1.23734e-06
1.13201e-06
1.03548e-06
9.4696e-07
8.65747e-07
7.91213e-07
7.22748e-07
6.59804e-07
6.01921e-07
5.48717e-07
4.99833e-07
4.54923e-07
4.13664e-07
3.7578e-07
3.41031e-07
3.09183e-07
2.80012e-07
2.53311e-07
2.28898e-07
2.06609e-07
1.86281e-07
1.67756e-07
1.50892e-07
1.35561e-07
1.21646e-07
1.09033e-07
9.76103e-08
8.7278e-08
7.79447e-08
6.95283e-08
6.19488e-08
5.51298e-08
4.90029e-08
4.35052e-08
3.85797e-08
3.41739e-08
3.02361e-08
2.67206e-08
2.35869e-08
2.07971e-08
1.83179e-08
1.61175e-08
1.41657e-08
1.24359e-08
1.09056e-08
9.55416e-09
8.36167e-09
7.31057e-09
6.38517e-09
5.5713e-09
4.85639e-09
4.22935e-09
3.6802e-09
3.19974e-09
2.77971e-09
2.41288e-09
2.0929e-09
1.81418e-09
1.57174e-09
1.3611e-09
1.17829e-09
1.01986e-09
8.82807e-10
7.64512e-10
6.62675e-10
5.7534e-10
5.0072e-10
4.37359e-10
3.83973e-10
3.39434e-10
3.02765e-10
2.73109e-10
2.49688e-10
2.3176e-10
2.18588e-10
2.09444e-10
2.03572e-10
2.00462e-10
1.99285e-10
2.00042e-10
2.0197e-10
2.04829e-10
2.08423e-10
2.12585e-10
2.17197e-10
2.22175e-10
2.27455e-10
2.32989e-10
2.38735e-10
2.44673e-10
2.50793e-10
2.571e-10
2.63589e-10
2.70271e-10
2.77146e-10
2.84213e-10
2.91497e-10
2.99001e-10
3.0676e-10
3.14809e-10
3.23168e-10
3.31922e-10
3.41026e-10
3.50846e-10
3.60666e-10
3.72681e-10
3.82296e-10
3.99984e-10
4.06347e-10
4.3535e-10
4.41251e-10
4.7585e-10
4.99732e-10
5.37753e-10
5.90502e-10
6.64154e-10
7.46561e-10
9.46304e-10
1.12061e-09
1.56612e-09
2.12672e-09
3.11832e-09
5.01565e-09
7.76155e-09
1.89483e-08
4.52509e-05
1.13942e-05
3.51916e-06
2.72414e-06
2.76669e-06
3.18549e-06
3.52167e-06
3.80273e-06
4.5223e-06
5.46946e-06
6.67398e-06
8.14091e-06
9.89387e-06
1.20036e-05
1.44073e-05
1.70813e-05
1.98829e-05
2.25811e-05
2.45786e-05
2.55496e-05
2.62146e-05
2.66445e-05
2.68862e-05
2.69888e-05
2.68826e-05
2.66504e-05
2.62749e-05
2.51941e-05
2.4216e-05
2.28126e-05
2.13948e-05
1.99195e-05
1.84043e-05
1.69231e-05
1.55328e-05
1.40323e-05
1.24896e-05
1.09739e-05
9.55468e-06
8.26217e-06
7.12026e-06
6.14003e-06
5.31829e-06
4.63912e-06
4.07952e-06
3.61554e-06
3.22599e-06
2.8939e-06
2.60655e-06
2.35472e-06
2.1319e-06
1.9333e-06
1.75532e-06
1.59516e-06
1.45057e-06
1.31969e-06
1.201e-06
1.0932e-06
9.952e-07
9.05994e-07
8.24689e-07
7.50508e-07
6.8279e-07
6.20955e-07
5.64472e-07
5.12844e-07
4.65631e-07
4.22459e-07
3.83001e-07
3.46953e-07
3.14023e-07
2.83952e-07
2.5651e-07
2.31495e-07
2.08712e-07
1.87975e-07
1.69111e-07
1.51972e-07
1.36422e-07
1.2233e-07
1.09571e-07
9.80294e-08
8.76012e-08
7.81923e-08
6.97165e-08
6.20886e-08
5.52309e-08
4.90741e-08
4.35534e-08
3.86107e-08
3.41914e-08
3.0243e-08
2.67198e-08
2.35807e-08
2.07869e-08
1.83045e-08
1.6102e-08
1.41491e-08
1.24193e-08
1.08893e-08
9.53816e-09
8.3462e-09
7.29574e-09
6.37109e-09
5.55799e-09
4.84383e-09
4.21758e-09
3.66918e-09
3.18941e-09
2.77e-09
2.40372e-09
2.08422e-09
1.8059e-09
1.56374e-09
1.35324e-09
1.1704e-09
1.01172e-09
8.74136e-10
7.54976e-10
6.51874e-10
5.62759e-10
4.85812e-10
4.19443e-10
3.62253e-10
3.1301e-10
2.70633e-10
2.34194e-10
2.02893e-10
1.76048e-10
1.53055e-10
1.33384e-10
1.1658e-10
1.02264e-10
9.01053e-11
7.98439e-11
7.12251e-11
6.40338e-11
5.80853e-11
5.32141e-11
4.92764e-11
4.6142e-11
4.36937e-11
4.1827e-11
4.04479e-11
3.94819e-11
3.88618e-11
3.84762e-11
3.84252e-11
3.85252e-11
3.87634e-11
3.9136e-11
3.96266e-11
4.02172e-11
4.08937e-11
4.16472e-11
4.24713e-11
4.33798e-11
4.43599e-11
4.54647e-11
4.66191e-11
4.80834e-11
4.9424e-11
5.16648e-11
5.33918e-11
5.68042e-11
6.09478e-11
6.495e-11
7.63112e-11
8.54322e-11
1.08105e-10
1.42245e-10
2.02773e-10
3.21997e-10
4.84413e-10
8.34115e-10
1.33286e-09
2.19256e-09
3.72817e-09
5.8771e-09
1.03855e-08
5.25564e-05
1.38394e-05
4.22768e-06
3.02165e-06
2.98283e-06
3.53217e-06
4.18284e-06
5.15472e-06
6.59008e-06
8.32193e-06
1.00413e-05
1.21848e-05
1.48504e-05
1.81743e-05
2.206e-05
2.6744e-05
3.03639e-05
3.17082e-05
3.22959e-05
3.24983e-05
3.19935e-05
3.16863e-05
3.17787e-05
3.19565e-05
3.20865e-05
3.22386e-05
3.22687e-05
3.14171e-05
2.9884e-05
2.81288e-05
2.61935e-05
2.43401e-05
2.26612e-05
2.11408e-05
1.99548e-05
1.85808e-05
1.6937e-05
1.50353e-05
1.30949e-05
1.12843e-05
9.60511e-06
8.11657e-06
6.84454e-06
5.79478e-06
4.94718e-06
4.26903e-06
3.72475e-06
3.28212e-06
2.91535e-06
2.60535e-06
2.33873e-06
2.10602e-06
1.90055e-06
1.71779e-06
1.55444e-06
1.40786e-06
1.27582e-06
1.15652e-06
1.04851e-06
9.5066e-07
8.61967e-07
7.81546e-07
7.08581e-07
6.42326e-07
5.82115e-07
5.27366e-07
4.7757e-07
4.32273e-07
3.91059e-07
3.53548e-07
3.19404e-07
2.88333e-07
2.60076e-07
2.34392e-07
2.11054e-07
1.89859e-07
1.70623e-07
1.53185e-07
1.37393e-07
1.23102e-07
1.10179e-07
9.85038e-08
8.79701e-08
7.84783e-08
6.99353e-08
6.22532e-08
5.53524e-08
4.91615e-08
4.36147e-08
3.86521e-08
3.42164e-08
3.02552e-08
2.67229e-08
2.35774e-08
2.07798e-08
1.82943e-08
1.60883e-08
1.41326e-08
1.24017e-08
1.08722e-08
9.52156e-09
8.33013e-09
7.28038e-09
6.35647e-09
5.54408e-09
4.83075e-09
4.2054e-09
3.65785e-09
3.17879e-09
2.76e-09