/*--------------------------------*- C++ -*----------------------------------*\
| =========                 |                                                 |
| \\      /  F ield         | OpenFOAM: The Open Source CFD Toolbox           |
|  \\    /   O peration     | Version:  2.1.x                                 |
|   \\  /    A nd           | Web:      www.OpenFOAM.org                      |
|    \\/     M anipulation  |                                                 |
\*---------------------------------------------------------------------------*/
FoamFile
{
    version     2.0;
    format      ascii;
    class       volScalarField;
    location    "0.005";
    object      p;
}
// * * * * * * * * * * * * * * * * * * * * * * * * * * * * * * * * * * * * * //

dimensions      [0 2 -2 0 0 0 0];

internalField   nonuniform List<scalar> 
12225
(
-317.767
-329.721
-331.988
-330.011
-327.567
-325.219
-322.687
-320.332
-318.57
-316.903
-315.001
-313.027
-311.118
-309.386
-307.897
-306.28
-304.401
-302.037
-321.257
-330.002
-331.89
-329.942
-327.531
-325.223
-322.709
-320.335
-318.581
-316.933
-315.02
-313.045
-311.134
-309.393
-307.91
-306.351
-304.485
-302.239
-323.948
-329.824
-331.286
-329.626
-327.372
-325.136
-322.65
-320.29
-318.56
-316.946
-315.063
-313.067
-311.136
-309.389
-307.901
-306.389
-304.497
-302.292
-326.474
-329.723
-330.698
-329.288
-327.147
-324.938
-322.519
-320.224
-318.492
-316.852
-314.957
-313.04
-311.149
-309.38
-307.856
-306.361
-304.421
-302.156
-328.276
-329.733
-330.099
-328.866
-326.859
-324.667
-322.323
-320.115
-318.361
-316.706
-314.838
-312.977
-311.094
-309.324
-307.751
-306.148
-304.242
-302.09
-329.149
-329.898
-329.567
-328.392
-326.54
-324.426
-322.17
-320.029
-318.213
-316.458
-314.658
-312.858
-311.062
-309.253
-307.63
-305.987
-304.164
-302.127
-332.228
-330.314
-329.148
-327.89
-326.2
-324.184
-321.997
-319.905
-318.103
-316.361
-314.572
-312.74
-310.939
-309.154
-307.499
-305.844
-304.096
-302.269
-334.387
-330.536
-328.779
-327.44
-325.867
-323.97
-321.865
-319.813
-317.961
-316.156
-314.245
-312.619
-310.885
-309.086
-307.449
-305.848
-304.102
-302.407
-336.752
-330.69
-328.514
-327.076
-325.532
-323.74
-321.726
-319.726
-317.911
-316.095
-314.266
-312.534
-310.819
-309.053
-307.412
-305.827
-304.157
-302.514
-337.1
-330.335
-328.153
-326.659
-325.158
-323.49
-321.601
-319.648
-317.794
-315.966
-314.144
-312.413
-310.741
-309.015
-307.389
-305.856
-304.222
-302.614
-331.024
-329.174
-327.673
-326.223
-324.777
-323.202
-321.441
-319.574
-317.732
-315.949
-314.125
-312.329
-310.664
-308.995
-307.358
-305.83
-304.274
-302.715
-326.973
-327.8
-327.076
-325.794
-324.432
-322.934
-321.271
-319.483
-317.64
-315.863
-314.091
-312.276
-310.584
-308.972
-307.358
-305.852
-304.379
-302.857
-325.407
-326.539
-326.449
-325.42
-324.136
-322.692
-321.097
-319.374
-317.589
-315.843
-314.102
-312.289
-310.567
-308.962
-307.386
-305.916
-304.472
-303.032
-321.91
-325.754
-326.143
-325.338
-324.069
-322.571
-320.955
-319.278
-317.557
-315.819
-314.096
-312.343
-310.617
-308.992
-307.439
-305.994
-304.64
-303.185
-321.588
-326.056
-326.613
-325.623
-324.18
-322.574
-320.9
-319.235
-317.559
-315.849
-314.137
-312.418
-310.718
-309.093
-307.523
-306.023
-304.652
-303.358
-345.036
-334.636
-329.263
-326.553
-324.54
-322.716
-320.979
-319.315
-317.659
-315.943
-314.196
-312.488
-310.853
-309.252
-307.659
-306.132
-304.717
-303.393
-329.98
-328.022
-326.535
-325.911
-324.62
-322.969
-321.262
-319.587
-317.914
-316.182
-314.396
-312.653
-311.042
-309.478
-307.854
-306.23
-304.778
-303.497
-332.21
-331.816
-330.278
-327.52
-325.527
-323.66
-321.763
-319.959
-318.281
-316.579
-314.748
-312.905
-311.231
-309.676
-308.081
-306.46
-304.936
-303.507
-326.93
-329.192
-328.746
-327.638
-326.096
-324.36
-322.425
-320.48
-318.705
-316.994
-315.156
-313.25
-311.482
-309.883
-308.287
-306.629
-305.051
-303.669
-330.565
-331.825
-330.71
-328.861
-327.016
-325.142
-323.176
-321.156
-319.236
-317.4
-315.518
-313.577
-311.73
-310.049
-308.431
-306.817
-305.278
-303.84
-343.534
-335.202
-332.311
-330.029
-327.928
-325.91
-323.868
-321.786
-319.752
-317.803
-315.865
-313.894
-311.989
-310.24
-308.599
-306.994
-305.435
-303.972
-334.687
-336.061
-333.747
-331.25
-328.917
-326.738
-324.598
-322.437
-320.279
-318.18
-316.134
-314.112
-312.18
-310.406
-308.753
-307.152
-305.597
-304.108
-343.958
-338.287
-334.907
-332.29
-329.903
-327.582
-325.264
-322.952
-320.68
-318.494
-316.392
-314.346
-312.405
-310.614
-308.935
-307.315
-305.73
-304.184
-343.668
-339.15
-335.819
-333.222
-330.796
-328.37
-325.892
-323.422
-321.027
-318.744
-316.573
-314.502
-312.558
-310.76
-309.074
-307.434
-305.823
-304.263
-343.318
-339.528
-336.544
-334.083
-331.63
-329.059
-326.389
-323.769
-321.288
-318.959
-316.768
-314.694
-312.741
-310.917
-309.195
-307.523
-305.891
-304.307
-343.912
-339.753
-337.207
-334.928
-332.435
-329.669
-326.828
-324.092
-321.529
-319.147
-316.925
-314.842
-312.881
-311.031
-309.274
-307.584
-305.942
-304.342
-343.237
-339.798
-337.876
-335.774
-333.141
-330.172
-327.188
-324.358
-321.729
-319.306
-317.06
-314.967
-312.992
-311.115
-309.327
-307.619
-305.979
-304.385
-342.288
-339.64
-338.569
-336.581
-333.721
-330.57
-327.488
-324.593
-321.912
-319.448
-317.177
-315.067
-313.074
-311.169
-309.349
-307.623
-305.99
-304.426
-338.23
-339.297
-339.413
-337.401
-334.263
-330.898
-327.68
-324.708
-321.984
-319.493
-317.208
-315.09
-313.092
-311.179
-309.351
-307.619
-305.988
-304.449
-331.641
-338.197
-339.387
-337.522
-334.406
-331.021
-327.765
-324.757
-322.01
-319.505
-317.213
-315.086
-313.081
-311.164
-309.337
-307.603
-305.971
-304.423
-275.496
-275.486
-275.462
-275.421
-275.364
-275.287
-275.189
-275.067
-274.918
-274.739
-274.525
-274.272
-273.976
-273.632
-273.235
-272.781
-272.264
-271.681
-271.029
-270.304
-269.506
-268.631
-267.682
-266.661
-265.573
-264.423
-263.217
-261.964
-260.671
-259.348
-258.004
-256.647
-255.287
-253.93
-252.585
-251.257
-249.953
-248.691
-247.445
-246.234
-245.06
-243.922
-242.82
-241.755
-240.724
-239.727
-238.761
-237.826
-236.917
-236.034
-235.174
-234.334
-233.513
-232.708
-231.916
-231.136
-230.367
-229.605
-228.85
-228.1
-227.354
-226.609
-225.865
-225.121
-224.376
-223.629
-222.878
-222.124
-221.365
-220.6
-219.83
-219.054
-218.271
-217.481
-216.683
-215.878
-215.064
-214.242
-213.411
-212.572
-211.723
-210.866
-210
-209.124
-208.239
-207.345
-206.442
-205.529
-204.606
-203.674
-202.733
-201.782
-200.822
-199.852
-198.873
-197.884
-196.885
-195.877
-194.859
-193.832
-192.796
-191.749
-190.693
-189.628
-188.553
-187.468
-186.374
-185.27
-184.157
-183.034
-181.901
-180.758
-179.606
-178.444
-177.272
-176.091
-174.899
-173.698
-172.486
-171.265
-170.033
-168.792
-167.54
-166.279
-165.007
-163.724
-162.432
-161.129
-159.816
-158.492
-157.157
-155.812
-154.456
-153.09
-151.712
-150.324
-148.925
-147.514
-146.093
-144.66
-143.216
-141.761
-140.294
-138.816
-137.326
-135.825
-134.311
-132.786
-131.249
-129.7
-128.138
-126.565
-124.979
-123.38
-121.769
-120.146
-118.509
-116.86
-115.198
-113.522
-111.834
-110.131
-108.415
-106.686
-104.942
-103.183
-101.411
-99.6206
-97.8198
-95.9945
-94.1647
-92.2996
-90.4368
-88.5297
-86.6225
-84.6681
-82.7093
-80.686
-78.661
-76.5977
-275.669
-275.659
-275.636
-275.598
-275.543
-275.469
-275.375
-275.257
-275.113
-274.938
-274.729
-274.481
-274.191
-273.851
-273.459
-273.008
-272.493
-271.911
-271.258
-270.531
-269.727
-268.846
-267.889
-266.858
-265.757
-264.593
-263.373
-262.105
-260.796
-259.458
-258.099
-256.728
-255.354
-253.986
-252.63
-251.295
-249.985
-248.706
-247.457
-246.243
-245.065
-243.924
-242.821
-241.754
-240.723
-239.725
-238.76
-237.825
-236.917
-236.035
-235.175
-234.337
-233.516
-232.712
-231.921
-231.143
-230.374
-229.613
-228.859
-228.109
-227.363
-226.619
-225.876
-225.132
-224.387
-223.639
-222.889
-222.134
-221.375
-220.61
-219.84
-219.063
-218.28
-217.489
-216.691
-215.885
-215.071
-214.248
-213.417
-212.577
-211.729
-210.871
-210.004
-209.128
-208.244
-207.349
-206.445
-205.532
-204.609
-203.677
-202.736
-201.784
-200.824
-199.854
-198.874
-197.885
-196.886
-195.878
-194.86
-193.833
-192.796
-191.749
-190.693
-189.628
-188.553
-187.468
-186.374
-185.27
-184.156
-183.033
-181.9
-180.757
-179.605
-178.443
-177.271
-176.089
-174.898
-173.696
-172.485
-171.263
-170.032
-168.79
-167.539
-166.277
-165.005
-163.723
-162.43
-161.127
-159.814
-158.49
-157.155
-155.81
-154.454
-153.088
-151.71
-150.322
-148.923
-147.512
-146.091
-144.658
-143.214
-141.759
-140.292
-138.814
-137.324
-135.822
-134.309
-132.784
-131.247
-129.697
-128.136
-126.562
-124.976
-123.378
-121.767
-120.143
-118.507
-116.858
-115.196
-113.52
-111.831
-110.129
-108.413
-106.683
-104.94
-103.181
-101.409
-99.6188
-97.8189
-95.9928
-94.1643
-92.2989
-90.4364
-88.5319
-86.6214
-84.6759
-82.7087
-80.7033
-78.6677
-76.6065
-276.02
-276.011
-275.99
-275.956
-275.906
-275.839
-275.752
-275.643
-275.508
-275.343
-275.145
-274.909
-274.629
-274.3
-273.917
-273.474
-272.965
-272.387
-271.734
-271.003
-270.193
-269.3
-268.327
-267.275
-266.151
-264.96
-263.71
-262.411
-261.072
-259.703
-258.315
-256.916
-255.517
-254.126
-252.751
-251.397
-250.075
-248.781
-247.521
-246.299
-245.114
-243.969
-242.862
-241.792
-240.76
-239.761
-238.795
-237.86
-236.953
-236.071
-235.212
-234.374
-233.554
-232.749
-231.959
-231.18
-230.412
-229.651
-228.896
-228.146
-227.399
-226.654
-225.91
-225.165
-224.419
-223.67
-222.919
-222.163
-221.402
-220.636
-219.865
-219.087
-218.302
-217.51
-216.711
-215.904
-215.088
-214.265
-213.433
-212.592
-211.743
-210.884
-210.017
-209.14
-208.254
-207.359
-206.454
-205.54
-204.617
-203.685
-202.742
-201.791
-200.83
-199.859
-198.879
-197.89
-196.891
-195.882
-194.864
-193.836
-192.799
-191.753
-190.696
-189.631
-188.555
-187.47
-186.376
-185.272
-184.158
-183.035
-181.902
-180.759
-179.606
-178.444
-177.272
-176.091
-174.899
-173.697
-172.486
-171.264
-170.033
-168.791
-167.54
-166.278
-165.006
-163.723
-162.431
-161.128
-159.814
-158.49
-157.156
-155.811
-154.455
-153.088
-151.711
-150.322
-148.923
-147.513
-146.091
-144.659
-143.215
-141.759
-140.292
-138.814
-137.324
-135.823
-134.309
-132.784
-131.247
-129.698
-128.136
-126.563
-124.977
-123.378
-121.767
-120.144
-118.507
-116.858
-115.196
-113.521
-111.832
-110.13
-108.414
-106.684
-104.941
-103.182
-101.411
-99.6204
-97.8208
-95.9959
-94.1667
-92.305
-90.4394
-88.5441
-86.6278
-84.6968
-82.7245
-80.7404
-78.712
-76.6988
-276.553
-276.545
-276.53
-276.502
-276.461
-276.404
-276.33
-276.235
-276.116
-275.969
-275.789
-275.571
-275.31
-275
-274.634
-274.205
-273.708
-273.136
-272.485
-271.75
-270.928
-270.017
-269.018
-267.935
-266.772
-265.539
-264.244
-262.897
-261.51
-260.094
-258.66
-257.219
-255.781
-254.355
-252.947
-251.567
-250.223
-248.909
-247.633
-246.397
-245.201
-244.048
-242.934
-241.86
-240.824
-239.823
-238.856
-237.919
-237.011
-236.129
-235.269
-234.431
-233.61
-232.806
-232.015
-231.235
-230.466
-229.704
-228.948
-228.197
-227.449
-226.702
-225.957
-225.21
-224.463
-223.712
-222.959
-222.201
-221.439
-220.672
-219.898
-219.119
-218.333
-217.539
-216.738
-215.93
-215.113
-214.288
-213.455
-212.613
-211.762
-210.902
-210.034
-209.156
-208.269
-207.373
-206.467
-205.552
-204.628
-203.695
-202.752
-201.8
-200.838
-199.867
-198.887
-197.897
-196.897
-195.888
-194.87
-193.842
-192.804
-191.757
-190.701
-189.634
-188.559
-187.474
-186.379
-185.275
-184.161
-183.037
-181.904
-180.761
-179.608
-178.446
-177.274
-176.092
-174.9
-173.698
-172.487
-171.265
-170.034
-168.792
-167.54
-166.278
-165.006
-163.724
-162.431
-161.128
-159.815
-158.491
-157.156
-155.811
-154.455
-153.088
-151.711
-150.322
-148.923
-147.513
-146.091
-144.658
-143.214
-141.759
-140.292
-138.814
-137.324
-135.823
-134.309
-132.784
-131.247
-129.697
-128.136
-126.562
-124.977
-123.378
-121.767
-120.144
-118.507
-116.858
-115.196
-113.521
-111.832
-110.13
-108.415
-106.685
-104.942
-103.183
-101.412
-99.6231
-97.8222
-96.0011
-94.1687
-92.3143
-90.4441
-88.5576
-86.6399
-84.7188
-82.753
-80.7864
-78.7817
-76.798
-277.273
-277.268
-277.258
-277.241
-277.213
-277.173
-277.117
-277.044
-276.95
-276.83
-276.679
-276.492
-276.262
-275.982
-275.644
-275.24
-274.763
-274.205
-273.56
-272.822
-271.988
-271.052
-270.016
-268.886
-267.668
-266.372
-265.01
-263.593
-262.137
-260.652
-259.153
-257.652
-256.158
-254.681
-253.228
-251.806
-250.44
-249.095
-247.795
-246.54
-245.329
-244.163
-243.041
-241.96
-240.918
-239.914
-238.943
-238.005
-237.095
-236.211
-235.35
-234.511
-233.689
-232.883
-232.091
-231.31
-230.539
-229.775
-229.018
-228.265
-227.515
-226.766
-226.018
-225.27
-224.52
-223.767
-223.012
-222.252
-221.487
-220.718
-219.942
-219.161
-218.372
-217.577
-216.774
-215.963
-215.145
-214.318
-213.483
-212.639
-211.787
-210.926
-210.056
-209.176
-208.288
-207.391
-206.484
-205.569
-204.644
-203.709
-202.765
-201.812
-200.85
-199.878
-198.897
-197.906
-196.906
-195.896
-194.877
-193.848
-192.81
-191.763
-190.706
-189.639
-188.563
-187.478
-186.383
-185.278
-184.164
-183.04
-181.907
-180.763
-179.611
-178.448
-177.276
-176.094
-174.902
-173.7
-172.488
-171.266
-170.035
-168.793
-167.541
-166.279
-165.007
-163.724
-162.432
-161.128
-159.815
-158.491
-157.156
-155.811
-154.455
-153.088
-151.711
-150.322
-148.923
-147.513
-146.091
-144.658
-143.214
-141.759
-140.292
-138.814
-137.324
-135.822
-134.309
-132.784
-131.247
-129.697
-128.136
-126.562
-124.976
-123.378
-121.767
-120.144
-118.507
-116.858
-115.196
-113.521
-111.832
-110.13
-108.415
-106.686
-104.943
-103.185
-101.413
-99.6259
-97.8244
-96.0064
-94.172
-92.3232
-90.4505
-88.5709
-86.6559
-84.7403
-82.7888
-80.8296
-78.854
-76.888
-278.19
-278.187
-278.188
-278.182
-278.172
-278.154
-278.126
-278.086
-278.028
-277.949
-277.843
-277.703
-277.521
-277.289
-276.998
-276.637
-276.197
-275.666
-275.037
-274.301
-273.454
-272.486
-271.402
-270.206
-268.909
-267.524
-266.066
-264.549
-262.993
-261.413
-259.824
-258.238
-256.668
-255.122
-253.61
-252.137
-250.724
-249.343
-248.012
-246.732
-245.501
-244.319
-243.184
-242.094
-241.045
-240.034
-239.06
-238.117
-237.204
-236.318
-235.455
-234.613
-233.789
-232.981
-232.187
-231.404
-230.63
-229.864
-229.104
-228.348
-227.595
-226.844
-226.094
-225.342
-224.589
-223.834
-223.075
-222.313
-221.546
-220.773
-219.995
-219.211
-218.42
-217.622
-216.816
-216.003
-215.183
-214.354
-213.517
-212.671
-211.817
-210.954
-210.082
-209.201
-208.312
-207.413
-206.505
-205.588
-204.662
-203.726
-202.781
-201.827
-200.864
-199.891
-198.909
-197.917
-196.916
-195.906
-194.886
-193.857
-192.818
-191.77
-190.713
-189.646
-188.569
-187.483
-186.388
-185.283
-184.168
-183.044
-181.91
-180.767
-179.614
-178.451
-177.278
-176.096
-174.904
-173.702
-172.49
-171.268
-170.036
-168.794
-167.542
-166.28
-165.008
-163.725
-162.432
-161.129
-159.815
-158.491
-157.157
-155.811
-154.455
-153.089
-151.711
-150.323
-148.923
-147.513
-146.091
-144.658
-143.214
-141.759
-140.292
-138.814
-137.324
-135.822
-134.309
-132.784
-131.247
-129.697
-128.136
-126.562
-124.976
-123.378
-121.767
-120.144
-118.507
-116.858
-115.196
-113.521
-111.833
-110.131
-108.416
-106.687
-104.944
-103.186
-101.415
-99.6288
-97.8273
-96.0113
-94.177
-92.3312
-90.4599
-88.5838
-86.6746
-84.7628
-82.8246
-80.8731
-78.9219
-76.9698
-279.275
-279.28
-279.294
-279.317
-279.336
-279.354
-279.368
-279.376
-279.373
-279.355
-279.316
-279.248
-279.142
-278.987
-278.772
-278.483
-278.106
-277.627
-277.031
-276.31
-275.454
-274.448
-273.299
-272.014
-270.605
-269.092
-267.496
-265.838
-264.143
-262.428
-260.713
-259.013
-257.34
-255.703
-254.11
-252.567
-251.096
-249.666
-248.294
-246.981
-245.724
-244.521
-243.369
-242.266
-241.206
-240.188
-239.207
-238.259
-237.342
-236.451
-235.585
-234.739
-233.912
-233.101
-232.303
-231.517
-230.74
-229.971
-229.207
-228.448
-227.691
-226.937
-226.182
-225.428
-224.671
-223.912
-223.15
-222.384
-221.614
-220.838
-220.056
-219.269
-218.475
-217.674
-216.866
-216.05
-215.227
-214.395
-213.556
-212.708
-211.852
-210.987
-210.113
-209.23
-208.339
-207.438
-206.529
-205.61
-204.683
-203.746
-202.799
-201.844
-200.88
-199.906
-198.922
-197.93
-196.928
-195.917
-194.896
-193.866
-192.827
-191.778
-190.72
-189.653
-188.576
-187.489
-186.393
-185.288
-184.173
-183.048
-181.914
-180.77
-179.617
-178.454
-177.281
-176.099
-174.906
-173.704
-172.492
-171.27
-170.038
-168.796
-167.544
-166.281
-165.009
-163.726
-162.433
-161.13
-159.816
-158.492
-157.157
-155.812
-154.456
-153.089
-151.711
-150.323
-148.923
-147.513
-146.091
-144.658
-143.214
-141.759
-140.292
-138.814
-137.324
-135.822
-134.309
-132.784
-131.246
-129.697
-128.136
-126.562
-124.976
-123.378
-121.767
-120.144
-118.507
-116.858
-115.196
-113.521
-111.833
-110.131
-108.416
-106.688
-104.945
-103.188
-101.417
-99.6319
-97.8307
-96.0164
-94.1828
-92.3391
-90.4712
-88.5965
-86.6958
-84.7856
-82.8604
-80.9185
-78.9823
-77.0447
-280.619
-280.62
-280.644
-280.676
-280.724
-280.782
-280.849
-280.921
-280.996
-281.068
-281.129
-281.173
-281.186
-281.158
-281.068
-280.901
-280.635
-280.25
-279.724
-279.039
-278.189
-277.139
-275.907
-274.497
-272.926
-271.23
-269.435
-267.571
-265.677
-263.773
-261.885
-260.027
-258.214
-256.454
-254.756
-253.123
-251.566
-250.074
-248.65
-247.294
-246.003
-244.773
-243.6
-242.48
-241.407
-240.378
-239.388
-238.433
-237.509
-236.613
-235.741
-234.891
-234.059
-233.243
-232.441
-231.65
-230.869
-230.095
-229.327
-228.563
-227.802
-227.043
-226.285
-225.526
-224.765
-224.002
-223.236
-222.466
-221.691
-220.912
-220.126
-219.335
-218.538
-217.734
-216.922
-216.103
-215.277
-214.443
-213.601
-212.75
-211.891
-211.024
-210.148
-209.263
-208.37
-207.467
-206.556
-205.636
-204.706
-203.768
-202.82
-201.864
-200.898
-199.923
-198.938
-197.945
-196.942
-195.93
-194.908
-193.877
-192.837
-191.788
-190.729
-189.661
-188.583
-187.496
-186.4
-185.294
-184.179
-183.054
-181.919
-180.775
-179.621
-178.458
-177.285
-176.102
-174.909
-173.707
-172.494
-171.272
-170.04
-168.797
-167.545
-166.283
-165.01
-163.727
-162.434
-161.131
-159.817
-158.493
-157.158
-155.812
-154.456
-153.089
-151.712
-150.323
-148.924
-147.513
-146.091
-144.659
-143.215
-141.759
-140.292
-138.814
-137.324
-135.822
-134.309
-132.784
-131.246
-129.697
-128.136
-126.562
-124.976
-123.378
-121.767
-120.144
-118.507
-116.859
-115.197
-113.522
-111.834
-110.132
-108.417
-106.689
-104.946
-103.19
-101.419
-99.635
-97.8346
-96.0215
-94.1895
-92.3474
-90.4829
-88.6103
-86.7166
-84.8095
-82.8958
-80.9623
-79.0373
-77.1134
-281.976
-282.008
-282.077
-282.173
-282.293
-282.429
-282.582
-282.754
-282.941
-283.146
-283.359
-283.569
-283.766
-283.929
-284.046
-284.083
-284.015
-283.801
-283.405
-282.793
-281.925
-280.872
-279.544
-277.961
-276.152
-274.188
-272.095
-269.925
-267.737
-265.557
-263.423
-261.346
-259.342
-257.417
-255.576
-253.822
-252.162
-250.585
-249.094
-247.683
-246.348
-245.084
-243.884
-242.742
-241.652
-240.609
-239.607
-238.641
-237.709
-236.804
-235.925
-235.068
-234.23
-233.408
-232.6
-231.803
-231.016
-230.237
-229.463
-228.694
-227.928
-227.164
-226.4
-225.636
-224.87
-224.103
-223.332
-222.557
-221.778
-220.994
-220.205
-219.41
-218.608
-217.8
-216.985
-216.163
-215.333
-214.496
-213.65
-212.797
-211.935
-211.065
-210.187
-209.3
-208.404
-207.5
-206.586
-205.664
-204.733
-203.793
-202.844
-201.885
-200.918
-199.941
-198.956
-197.961
-196.957
-195.944
-194.921
-193.89
-192.849
-191.799
-190.739
-189.67
-188.592
-187.504
-186.407
-185.301
-184.185
-183.059
-181.924
-180.78
-179.626
-178.462
-177.288
-176.105
-174.912
-173.71
-172.497
-171.274
-170.042
-168.799
-167.547
-166.285
-165.012
-163.729
-162.436
-161.132
-159.818
-158.494
-157.159
-155.813
-154.457
-153.09
-151.712
-150.323
-148.924
-147.513
-146.092
-144.659
-143.215
-141.759
-140.292
-138.814
-137.324
-135.822
-134.309
-132.784
-131.246
-129.697
-128.136
-126.562
-124.976
-123.378
-121.767
-120.144
-118.508
-116.859
-115.197
-113.522
-111.834
-110.133
-108.418
-106.69
-104.948
-103.192
-101.422
-99.6382
-97.8388
-96.0267
-94.1967
-92.3559
-90.4953
-88.6245
-86.7369
-84.835
-82.9285
-81.005
-79.0881
-77.173
-283.714
-283.745
-283.811
-283.915
-284.048
-284.236
-284.489
-284.797
-285.144
-285.528
-285.958
-286.425
-286.92
-287.417
-287.883
-288.285
-288.564
-288.672
-288.537
-288.11
-287.346
-286.226
-284.758
-282.92
-280.756
-278.381
-275.823
-273.177
-270.538
-267.945
-265.45
-263.063
-260.795
-258.644
-256.612
-254.698
-252.903
-251.217
-249.636
-248.155
-246.765
-245.458
-244.224
-243.055
-241.944
-240.882
-239.865
-238.887
-237.942
-237.027
-236.139
-235.273
-234.426
-233.596
-232.781
-231.977
-231.183
-230.397
-229.617
-228.841
-228.069
-227.299
-226.529
-225.759
-224.988
-224.214
-223.438
-222.658
-221.874
-221.085
-220.291
-219.491
-218.685
-217.873
-217.054
-216.228
-215.395
-214.554
-213.705
-212.849
-211.984
-211.111
-210.23
-209.34
-208.442
-207.535
-206.62
-205.695
-204.762
-203.82
-202.869
-201.909
-200.94
-199.962
-198.975
-197.979
-196.974
-195.96
-194.936
-193.903
-192.862
-191.81
-190.75
-189.68
-188.601
-187.513
-186.415
-185.308
-184.192
-183.066
-181.93
-180.785
-179.631
-178.466
-177.293
-176.109
-174.916
-173.713
-172.5
-171.277
-170.044
-168.802
-167.549
-166.286
-165.014
-163.73
-162.437
-161.133
-159.819
-158.495
-157.16
-155.814
-154.458
-153.09
-151.713
-150.324
-148.924
-147.514
-146.092
-144.659
-143.215
-141.759
-140.292
-138.814
-137.324
-135.822
-134.309
-132.784
-131.246
-129.697
-128.136
-126.562
-124.976
-123.378
-121.767
-120.144
-118.508
-116.859
-115.197
-113.522
-111.835
-110.133
-108.419
-106.691
-104.949
-103.194
-101.425
-99.6416
-97.8433
-96.0321
-94.2041
-92.3647
-90.5076
-88.6391
-86.7571
-84.8599
-82.9596
-81.0452
-79.1332
-77.2264
-285.293
-285.331
-285.487
-285.706
-285.99
-286.31
-286.685
-287.131
-287.679
-288.34
-289.105
-289.965
-290.899
-291.902
-292.93
-293.93
-294.809
-295.456
-295.782
-295.693
-295.117
-294.007
-292.37
-290.181
-287.52
-284.526
-281.248
-277.854
-274.487
-271.246
-268.19
-265.336
-262.681
-260.212
-257.918
-255.794
-253.82
-251.99
-250.294
-248.722
-247.263
-245.902
-244.626
-243.424
-242.286
-241.202
-240.165
-239.17
-238.21
-237.282
-236.381
-235.504
-234.647
-233.808
-232.983
-232.171
-231.369
-230.575
-229.787
-229.004
-228.225
-227.447
-226.67
-225.894
-225.116
-224.336
-223.554
-222.768
-221.978
-221.184
-220.385
-219.58
-218.77
-217.953
-217.129
-216.299
-215.462
-214.617
-213.765
-212.905
-212.037
-211.161
-210.276
-209.384
-208.483
-207.574
-206.656
-205.729
-204.794
-203.85
-202.897
-201.935
-200.965
-199.985
-198.996
-197.999
-196.992
-195.977
-194.952
-193.918
-192.875
-191.823
-190.762
-189.691
-188.612
-187.522
-186.424
-185.316
-184.199
-183.073
-181.937
-180.791
-179.636
-178.471
-177.297
-176.113
-174.92
-173.716
-172.503
-171.28
-170.047
-168.804
-167.551
-166.288
-165.015
-163.732
-162.438
-161.135
-159.82
-158.496
-157.161
-155.815
-154.458
-153.091
-151.713
-150.324
-148.925
-147.514
-146.092
-144.659
-143.215
-141.759
-140.292
-138.814
-137.324
-135.822
-134.309
-132.784
-131.246
-129.697
-128.136
-126.562
-124.976
-123.378
-121.767
-120.144
-118.508
-116.859
-115.198
-113.523
-111.835
-110.134
-108.42
-106.692
-104.951
-103.196
-101.427
-99.645
-97.8478
-96.0376
-94.2116
-92.3737
-90.5199
-88.654
-86.7764
-84.8843
-82.9892
-81.0818
-79.1748
-77.2743
-286.95
-287.035
-287.245
-287.516
-287.845
-288.285
-288.862
-289.574
-290.407
-291.388
-292.543
-293.915
-295.54
-297.403
-299.419
-301.425
-303.276
-304.818
-305.933
-306.494
-306.328
-305.362
-303.651
-301.136
-297.888
-293.999
-289.617
-284.996
-280.388
-276.031
-272.017
-268.388
-265.126
-262.193
-259.545
-257.141
-254.938
-252.923
-251.081
-249.396
-247.85
-246.422
-245.096
-243.854
-242.682
-241.57
-240.509
-239.493
-238.515
-237.57
-236.654
-235.763
-234.894
-234.043
-233.208
-232.385
-231.573
-230.77
-229.973
-229.182
-228.394
-227.608
-226.824
-226.04
-225.255
-224.468
-223.679
-222.887
-222.091
-221.291
-220.486
-219.676
-218.86
-218.038
-217.21
-216.375
-215.534
-214.685
-213.829
-212.965
-212.093
-211.214
-210.326
-209.431
-208.527
-207.615
-206.694
-205.765
-204.828
-203.882
-202.927
-201.963
-200.991
-200.009
-199.019
-198.02
-197.012
-195.995
-194.969
-193.934
-192.89
-191.837
-190.775
-189.703
-188.623
-187.533
-186.434
-185.325
-184.207
-183.08
-181.944
-180.798
-179.642
-178.477
-177.302
-176.118
-174.924
-173.72
-172.507
-171.283
-170.05
-168.807
-167.554
-166.291
-165.017
-163.734
-162.44
-161.136
-159.822
-158.497
-157.162
-155.816
-154.459
-153.092
-151.714
-150.325
-148.925
-147.514
-146.093
-144.66
-143.215
-141.76
-140.293
-138.814
-137.324
-135.822
-134.309
-132.784
-131.246
-129.697
-128.136
-126.562
-124.976
-123.378
-121.767
-120.144
-118.508
-116.859
-115.198
-113.523
-111.836
-110.135
-108.421
-106.694
-104.953
-103.198
-101.43
-99.6485
-97.8524
-96.0432
-94.219
-92.3828
-90.5318
-88.6688
-86.7949
-84.9078
-83.0165
-81.1155
-79.2131
-77.3161
-288.485
-288.618
-288.853
-289.191
-289.627
-290.201
-290.939
-291.887
-293.083
-294.553
-296.354
-298.53
-301.144
-304.204
-307.591
-311.076
-314.406
-317.388
-319.837
-321.511
-322.117
-321.463
-319.663
-316.614
-312.408
-307.264
-301.429
-295.156
-288.8
-282.737
-277.222
-272.37
-268.184
-264.59
-261.486
-258.715
-256.233
-254.001
-251.99
-250.174
-248.526
-247.021
-245.635
-244.344
-243.133
-241.988
-240.898
-239.855
-238.854
-237.889
-236.956
-236.049
-235.165
-234.301
-233.453
-232.619
-231.796
-230.982
-230.175
-229.374
-228.577
-227.782
-226.989
-226.197
-225.404
-224.61
-223.814
-223.015
-222.212
-221.405
-220.594
-219.778
-218.957
-218.13
-217.296
-216.457
-215.61
-214.757
-213.897
-213.029
-212.154
-211.271
-210.38
-209.481
-208.574
-207.659
-206.736
-205.804
-204.864
-203.916
-202.959
-201.993
-201.018
-200.035
-199.043
-198.043
-197.033
-196.015
-194.988
-193.951
-192.906
-191.852
-190.789
-189.716
-188.634
-187.544
-186.444
-185.335
-184.216
-183.088
-181.951
-180.804
-179.648
-178.483
-177.308
-176.123
-174.929
-173.725
-172.511
-171.287
-170.053
-168.81
-167.557
-166.293
-165.02
-163.736
-162.442
-161.138
-159.823
-158.498
-157.163
-155.817
-154.46
-153.093
-151.715
-150.326
-148.926
-147.515
-146.093
-144.66
-143.216
-141.76
-140.293
-138.814
-137.324
-135.822
-134.309
-132.784
-131.246
-129.697
-128.136
-126.562
-124.976
-123.378
-121.768
-120.144
-118.508
-116.86
-115.198
-113.524
-111.836
-110.136
-108.422
-106.695
-104.954
-103.201
-101.433
-99.6519
-97.8569
-96.0488
-94.2264
-92.3918
-90.5434
-88.6832
-86.8126
-84.9298
-83.0422
-81.1464
-79.2476
-77.3535
-289.705
-289.872
-290.204
-290.682
-291.348
-292.188
-293.238
-294.509
-296.025
-297.861
-300.228
-303.361
-307.358
-312.138
-317.407
-322.842
-328.158
-333.091
-337.323
-340.431
-341.994
-341.659
-339.248
-334.976
-329.184
-322.395
-314.987
-307.059
-298.896
-290.929
-283.618
-277.221
-271.831
-267.394
-263.651
-260.438
-257.636
-255.168
-252.981
-251.03
-249.278
-247.689
-246.234
-244.888
-243.631
-242.446
-241.322
-240.251
-239.225
-238.238
-237.284
-236.36
-235.46
-234.58
-233.719
-232.871
-232.036
-231.21
-230.392
-229.58
-228.773
-227.968
-227.166
-226.365
-225.563
-224.761
-223.956
-223.15
-222.34
-221.526
-220.709
-219.887
-219.059
-218.226
-217.388
-216.543
-215.691
-214.833
-213.969
-213.097
-212.217
-211.33
-210.436
-209.534
-208.624
-207.706
-206.78
-205.845
-204.903
-203.952
-202.992
-202.024
-201.048
-200.063
-199.069
-198.067
-197.056
-196.036
-195.007
-193.969
-192.923
-191.867
-190.803
-189.73
-188.647
-187.555
-186.455
-185.345
-184.225
-183.097
-181.959
-180.812
-179.655
-178.489
-177.313
-176.128
-174.933
-173.729
-172.515
-171.291
-170.057
-168.813
-167.559
-166.296
-165.022
-163.738
-162.444
-161.14
-159.825
-158.5
-157.164
-155.818
-154.461
-153.094
-151.715
-150.326
-148.926
-147.516
-146.094
-144.66
-143.216
-141.76
-140.293
-138.814
-137.324
-135.823
-134.309
-132.784
-131.246
-129.697
-128.136
-126.562
-124.976
-123.378
-121.768
-120.144
-118.509
-116.86
-115.199
-113.524
-111.837
-110.137
-108.423
-106.696
-104.956
-103.203
-101.436
-99.6554
-97.8613
-96.0544
-94.2335
-92.4006
-90.5545
-88.6969
-86.8293
-84.9503
-83.066
-81.1743
-79.2789
-77.3867
-290.471
-290.693
-291.137
-291.762
-292.584
-293.552
-294.808
-296.35
-298.269
-300.706
-303.94
-308.257
-313.766
-320.316
-327.546
-335.142
-342.812
-350.075
-356.321
-360.89
-363.141
-362.585
-359.302
-353.44
-345.42
-336.157
-326.745
-317.511
-308.177
-298.898
-290.146
-282.34
-275.739
-270.3
-265.854
-262.174
-259.054
-256.359
-254.005
-251.932
-250.083
-248.413
-246.886
-245.477
-244.165
-242.934
-241.772
-240.669
-239.616
-238.606
-237.632
-236.69
-235.773
-234.878
-234.001
-233.14
-232.291
-231.453
-230.623
-229.799
-228.98
-228.165
-227.353
-226.542
-225.731
-224.919
-224.107
-223.292
-222.475
-221.654
-220.829
-220
-219.166
-218.328
-217.483
-216.633
-215.776
-214.913
-214.044
-213.168
-212.284
-211.393
-210.495
-209.589
-208.676
-207.755
-206.825
-205.888
-204.943
-203.989
-203.027
-202.057
-201.079
-200.092
-199.096
-198.092
-197.079
-196.058
-195.027
-193.988
-192.941
-191.884
-190.818
-189.744
-188.66
-187.568
-186.466
-185.355
-184.235
-183.106
-181.967
-180.819
-179.662
-178.496
-177.319
-176.134
-174.939
-173.734
-172.519
-171.295
-170.06
-168.816
-167.562
-166.299
-165.025
-163.74
-162.446
-161.141
-159.827
-158.501
-157.166
-155.819
-154.462
-153.095
-151.716
-150.327
-148.927
-147.516
-146.094
-144.661
-143.216
-141.76
-140.293
-138.815
-137.325
-135.823
-134.309
-132.784
-131.246
-129.697
-128.136
-126.562
-124.976
-123.378
-121.768
-120.145
-118.509
-116.86
-115.199
-113.525
-111.838
-110.137
-108.424
-106.698
-104.958
-103.205
-101.438
-99.6587
-97.8656
-96.0597
-94.2404
-92.4091
-90.5651
-88.71
-86.8449
-84.9692
-83.0878
-81.1995
-79.307
-77.4163
-290.679
-290.971
-291.52
-292.248
-293.124
-294.171
-295.475
-297.145
-299.354
-302.345
-306.376
-311.782
-318.653
-326.797
-335.916
-345.714
-355.887
-365.71
-374.234
-380.531
-383.858
-383.7
-380
-372.792
-361.906
-348.493
-335.763
-324.623
-314.478
-304.715
-295.292
-286.507
-278.866
-272.586
-267.574
-263.57
-260.27
-257.451
-254.994