/*--------------------------------*- C++ -*----------------------------------*\
| =========                 |                                                 |
| \\      /  F ield         | OpenFOAM: The Open Source CFD Toolbox           |
|  \\    /   O peration     | Version:  2.1.x                                 |
|   \\  /    A nd           | Web:      www.OpenFOAM.org                      |
|    \\/     M anipulation  |                                                 |
\*---------------------------------------------------------------------------*/
FoamFile
{
    version     2.0;
    format      ascii;
    class       surfaceScalarField;
    location    "0.005";
    object      phi;
}
// * * * * * * * * * * * * * * * * * * * * * * * * * * * * * * * * * * * * * //

dimensions      [0 3 -1 0 0 0 0];

internalField   nonuniform List<scalar> 
24170
(
1.90479e-06
1.25626e-06
1.14715e-06
7.57634e-07
8.36504e-07
3.10649e-07
7.03763e-07
1.3274e-07
6.35104e-07
6.86589e-08
6.0142e-07
3.36847e-08
5.96882e-07
4.5382e-09
5.92371e-07
4.51041e-09
5.72889e-07
1.94824e-08
5.64971e-07
7.91751e-09
5.72812e-07
-7.84023e-09
5.86476e-07
-1.36648e-08
5.99717e-07
-1.32404e-08
6.06604e-07
-6.88744e-09
6.0764e-07
-1.03565e-09
6.27226e-07
-1.95864e-08
6.52533e-07
-2.53071e-08
-6.76974e-08
7.20231e-07
3.34313e-06
1.34352e-06
2.88455e-06
1.21621e-06
2.52463e-06
6.70573e-07
2.25684e-06
4.00529e-07
2.06125e-06
2.64253e-07
1.94611e-06
1.4882e-07
1.88654e-06
6.41144e-08
1.83474e-06
5.6308e-08
1.78282e-06
7.14013e-08
1.7569e-06
3.38411e-08
1.75967e-06
-1.06168e-08
1.77269e-06
-2.66828e-08
1.78452e-06
-2.5069e-08
1.79329e-06
-1.56573e-08
1.80061e-06
-8.36186e-09
1.82241e-06
-4.13822e-08
1.88424e-06
-8.71412e-08
-1.63897e-07
1.98044e-06
4.06839e-06
1.02425e-06
4.01005e-06
1.27455e-06
3.86133e-06
8.19294e-07
3.67584e-06
5.8601e-07
3.48437e-06
4.55725e-07
3.34879e-06
2.84405e-07
3.26285e-06
1.50051e-07
3.17896e-06
1.40198e-07
3.09947e-06
1.50893e-07
3.04205e-06
9.12643e-08
3.01291e-06
1.85203e-08
3.01679e-06
-3.05655e-08
3.0249e-06
-3.31768e-08
3.03535e-06
-2.61055e-08
3.05011e-06
-2.31282e-08
3.06461e-06
-5.58772e-08
3.11333e-06
-1.35864e-07
-2.32385e-07
3.18182e-06
4.42264e-06
8.49316e-07
4.5718e-06
1.12539e-06
4.6139e-06
7.77194e-07
4.62942e-06
5.70488e-07
4.57723e-06
5.07923e-07
4.50842e-06
3.5321e-07
4.45146e-06
2.07012e-07
4.3977e-06
1.93955e-07
4.35682e-06
1.91773e-07
4.31841e-06
1.29681e-07
4.259e-06
7.79238e-08
4.21648e-06
1.19565e-08
4.21053e-06
-2.72319e-08
4.2312e-06
-4.67676e-08
4.2585e-06
-5.04354e-08
4.28783e-06
-8.52015e-08
4.37037e-06
-2.18406e-07
-2.43377e-07
4.38136e-06
4.87491e-06
6.61549e-07
5.00194e-06
9.98358e-07
5.08275e-06
6.96381e-07
5.19954e-06
4.53703e-07
5.22625e-06
4.81207e-07
5.15772e-06
4.21742e-07
5.07357e-06
2.91165e-07
5.06441e-06
2.03113e-07
5.13734e-06
1.1884e-07
5.21039e-06
5.66318e-08
5.21039e-06
7.79248e-08
5.16127e-06
6.10813e-08
5.14005e-06
-6.01447e-09
5.14609e-06
-5.28101e-08
5.14848e-06
-5.2828e-08
5.2079e-06
-1.44619e-07
5.33309e-06
-3.43592e-07
-2.1426e-07
5.30397e-06
5.30335e-06
4.85363e-07
5.42113e-06
8.80581e-07
5.47877e-06
6.38731e-07
5.56267e-06
3.69811e-07
5.61463e-06
4.29246e-07
5.59146e-06
4.44908e-07
5.55412e-06
3.2851e-07
5.58109e-06
1.76135e-07
5.65123e-06
4.87056e-08
5.71595e-06
-8.08869e-09
5.76691e-06
2.69618e-08
5.79289e-06
3.51055e-08
5.77282e-06
1.40497e-08
5.73009e-06
-1.00758e-08
5.7533e-06
-7.60351e-08
5.8278e-06
-2.19118e-07
5.825e-06
-3.40798e-07
-1.18683e-07
5.72942e-06
5.74195e-06
3.15658e-07
5.91857e-06
7.03961e-07
6.00438e-06
5.52926e-07
6.02283e-06
3.51357e-07
6.06696e-06
3.8511e-07
6.10514e-06
4.06728e-07
6.13615e-06
2.97503e-07
6.16078e-06
1.51508e-07
6.17853e-06
3.09557e-08
6.19565e-06
-2.5209e-08
6.22624e-06
-3.62893e-09
6.23653e-06
2.48154e-08
6.23759e-06
1.29852e-08
6.25027e-06
-2.27468e-08
6.26317e-06
-8.89387e-08
6.22836e-06
-1.84308e-07
6.17087e-06
-2.8331e-07
-1.47054e-07
6.19924e-06
4.33681e-06
2.71155e-07
4.5496e-06
4.91164e-07
4.6706e-06
4.3193e-07
4.69648e-06
3.25481e-07
4.71944e-06
3.62147e-07
4.75871e-06
3.67461e-07
4.79295e-06
2.63261e-07
4.80706e-06
1.37395e-07
4.80685e-06
3.11721e-08
4.79721e-06
-1.55702e-08
4.78462e-06
8.95763e-09
4.78204e-06
2.73975e-08
4.80056e-06
-5.53281e-09
4.81945e-06
-4.16389e-08
4.81171e-06
-8.11957e-08
4.79203e-06
-1.6463e-07
4.80851e-06
-2.99794e-07
-1.9626e-07
4.85772e-06
5.06833e-06
1.51971e-07
5.30029e-06
2.59209e-07
5.42084e-06
3.1138e-07
5.43979e-06
3.0653e-07
5.43528e-06
3.66659e-07
5.45003e-06
3.52712e-07
5.47416e-06
2.39124e-07
5.49926e-06
1.12301e-07
5.51825e-06
1.21789e-08
5.53546e-06
-3.27824e-08
5.55426e-06
-9.83704e-09
5.56942e-06
1.22374e-08
5.56773e-06
-3.84187e-09
5.54827e-06
-2.21822e-08
5.53674e-06
-6.96637e-08
5.55827e-06
-1.86158e-07
5.59656e-06
-3.38092e-07
-2.21999e-07
5.6223e-06
6.08924e-06
7.18393e-08
6.1015e-06
2.46956e-07
6.13277e-06
2.80109e-07
6.16375e-06
2.75547e-07
6.21475e-06
3.15656e-07
6.28319e-06
2.84276e-07
6.3401e-06
1.82212e-07
6.36741e-06
8.49936e-08
6.37558e-06
4.00917e-09
6.37416e-06
-3.13633e-08
6.38073e-06
-1.6411e-08
6.39573e-06
-2.76208e-09
6.42363e-06
-3.17422e-08
6.46376e-06
-6.23124e-08
6.49334e-06
-9.92385e-08
6.47786e-06
-1.70684e-07
6.42805e-06
-2.88277e-07
-2.36739e-07
6.44279e-06
7.10842e-06
1.00764e-07
7.11259e-06
2.42791e-07
7.09688e-06
2.95821e-07
7.08679e-06
2.85629e-07
7.12334e-06
2.79105e-07
7.19639e-06
2.11229e-07
7.27578e-06
1.02828e-07
7.34421e-06
1.65621e-08
7.39035e-06
-4.21314e-08
7.43146e-06
-7.24759e-08
7.48498e-06
-6.99256e-08
7.53257e-06
-5.03532e-08
7.57243e-06
-7.16015e-08
7.62273e-06
-1.12619e-07
7.66697e-06
-1.43475e-07
7.66116e-06
-1.6488e-07
7.62529e-06
-2.52406e-07
-3.51866e-07
7.74042e-06
8.30541e-06
1.08394e-07
8.23005e-06
3.18154e-07
8.19068e-06
3.35189e-07
8.20144e-06
2.74869e-07
8.28122e-06
1.99326e-07
8.38792e-06
1.04526e-07
8.47506e-06
1.56908e-08
8.53499e-06
-4.33707e-08
8.57001e-06
-7.71478e-08
8.5869e-06
-8.93758e-08
8.61285e-06
-9.58737e-08
8.64491e-06
-8.24146e-08
8.66839e-06
-9.50818e-08
8.68607e-06
-1.30298e-07
8.68996e-06
-1.47365e-07
8.66416e-06
-1.39074e-07
8.67471e-06
-2.62954e-07
-5.40991e-07
8.86383e-06
9.57774e-06
1.57904e-07
9.49867e-06
3.97227e-07
9.5247e-06
3.09156e-07
9.5805e-06
2.19068e-07
9.65275e-06
1.27081e-07
9.73153e-06
2.57466e-08
9.80205e-06
-5.48343e-08
9.85506e-06
-9.63757e-08
9.88769e-06
-1.09777e-07
9.89904e-06
-1.00729e-07
9.89902e-06
-9.58552e-08
9.90688e-06
-9.02729e-08
9.91624e-06
-1.04442e-07
9.9339e-06
-1.47955e-07
9.9646e-06
-1.78063e-07
1.0023e-05
-1.97499e-07
1.00598e-05
-2.9974e-07
-4.48844e-07
9.96766e-06
1.08621e-05
1.67659e-07
1.11059e-05
1.53412e-07
1.12774e-05
1.3764e-07
1.13803e-05
1.1615e-07
1.1413e-05
9.43741e-08
1.1403e-05
3.57998e-08
1.13871e-05
-3.88891e-08
1.13805e-05
-8.98274e-08
1.13875e-05
-1.16776e-07
1.14129e-05
-1.26145e-07
1.14585e-05
-1.41416e-07
1.1532e-05
-1.63814e-07
1.1604e-05
-1.76469e-07
1.16639e-05
-2.07823e-07
1.17448e-05
-2.58965e-07
1.18191e-05
-2.71771e-07
1.16789e-05
-1.59573e-07
-2.50722e-07
1.14808e-05
1.30491e-05
1.64958e-07
1.30598e-05
1.42702e-07
1.30792e-05
1.18258e-07
1.31532e-05
4.21555e-08
1.32371e-05
1.04449e-08
1.32881e-05
-1.51618e-08
1.33052e-05
-5.60298e-08
1.33162e-05
-1.00746e-07
1.33454e-05
-1.45992e-07
1.33955e-05
-1.76255e-07
1.34405e-05
-1.86447e-07
1.34748e-05
-1.98083e-07
1.35039e-05
-2.05584e-07
1.35179e-05
-2.21795e-07
1.3508e-05
-2.49044e-07
1.34857e-05
-2.49534e-07
1.35158e-05
-1.89675e-07
-2.47161e-07
1.35123e-05
1.49245e-05
-2.22611e-07
1.50472e-05
1.99469e-08
1.51458e-05
1.96877e-08
1.52509e-05
-6.29219e-08
1.53302e-05
-6.88248e-08
1.53706e-05
-5.55638e-08
1.53795e-05
-6.49232e-08
1.53747e-05
-9.60112e-08
1.5356e-05
-1.27292e-07
1.53304e-05
-1.50585e-07
1.53051e-05
-1.61164e-07
1.52947e-05
-1.87759e-07
1.53096e-05
-2.20472e-07
1.53384e-05
-2.50558e-07
1.53691e-05
-2.79793e-07
1.54597e-05
-3.40113e-07
1.56808e-05
-4.10784e-07
-2.39471e-07
1.56731e-05
1.77003e-05
3.28282e-08
1.76396e-05
8.05825e-08
1.76901e-05
-3.07584e-08
1.77481e-05
-1.20947e-07
1.78235e-05
-1.44241e-07
1.78678e-05
-9.9882e-08
1.7865e-05
-6.20771e-08
1.7836e-05
-6.70585e-08
1.78025e-05
-9.37641e-08
1.77866e-05
-1.34702e-07
1.78058e-05
-1.80284e-07
1.785e-05
-2.32041e-07
1.79098e-05
-2.80257e-07
1.79772e-05
-3.17937e-07
1.80452e-05
-3.47784e-07
1.80726e-05
-3.67474e-07
1.80346e-05
-3.72799e-07
-3.90982e-07
1.81861e-05
1.73509e-05
-1.14566e-07
1.7479e-05
-4.75054e-08
1.75691e-05
-1.20904e-07
1.76555e-05
-2.07349e-07
1.77772e-05
-2.65967e-07
1.79412e-05
-2.63814e-07
1.80876e-05
-2.08537e-07
1.81783e-05
-1.57675e-07
1.82179e-05
-1.33394e-07
1.82194e-05
-1.36239e-07
1.82008e-05
-1.61652e-07
1.8167e-05
-1.98229e-07
1.81289e-05
-2.42169e-07
1.80961e-05
-2.85136e-07
1.80675e-05
-3.1916e-07
1.80368e-05
-3.36775e-07
1.80082e-05
-3.44189e-07
-3.66631e-07
1.79838e-05
1.61514e-05
-3.02116e-08
1.61577e-05
-5.38622e-08
1.60938e-05
-5.69568e-08
1.60416e-05
-1.55154e-07
1.60551e-05
-2.7951e-07
1.61376e-05
-3.46298e-07
1.62445e-05
-3.15437e-07
1.63291e-05
-2.42265e-07
1.6376e-05
-1.80302e-07
1.63948e-05
-1.55055e-07
1.63948e-05
-1.61671e-07
1.63849e-05
-1.88282e-07
1.63682e-05
-2.25438e-07
1.63473e-05
-2.64232e-07
1.63173e-05
-2.89198e-07
1.62833e-05
-3.02825e-07
1.62444e-05
-3.05209e-07
-2.96837e-07
1.61746e-05
1.3831e-05
1.82128e-07
1.4026e-05
-2.48864e-07
1.42519e-05
-2.82862e-07
1.43787e-05
-2.82038e-07
1.44162e-05
-3.16916e-07
1.44151e-05
-3.45277e-07
1.44268e-05
-3.27071e-07
1.44597e-05
-2.75238e-07
1.45129e-05
-2.33454e-07
1.45831e-05
-2.25274e-07
1.46587e-05
-2.37279e-07
1.47257e-05
-2.55276e-07
1.47686e-05
-2.68343e-07
1.47824e-05
-2.78039e-07
1.47728e-05
-2.79536e-07
1.4744e-05
-2.741e-07
1.47028e-05
-2.64003e-07
-2.55099e-07
1.46611e-05
1.26753e-05
5.79686e-08
1.26358e-05
-2.09405e-07
1.27237e-05
-3.70762e-07
1.28468e-05
-4.05074e-07
1.29281e-05
-3.98245e-07
1.295e-05
-3.67172e-07
1.29468e-05
-3.2389e-07
1.29432e-05
-2.71611e-07
1.29473e-05
-2.37588e-07
1.29577e-05
-2.35639e-07
1.2971e-05
-2.50609e-07
1.29848e-05
-2.6912e-07
1.29953e-05
-2.78844e-07
1.29998e-05
-2.82482e-07
1.30005e-05
-2.80287e-07
1.29998e-05
-2.73381e-07
1.29977e-05
-2.61878e-07
-2.5329e-07
1.29959e-05
1.11955e-05
1.47212e-07
1.12442e-05
-2.58068e-07
1.13076e-05
-4.34209e-07
1.13703e-05
-4.67766e-07
1.14219e-05
-4.49894e-07
1.1462e-05
-4.07233e-07
1.14907e-05
-3.52568e-07
1.15205e-05
-3.01397e-07
1.15579e-05
-2.75066e-07
1.15985e-05
-2.76163e-07
1.16381e-05
-2.90258e-07
1.16725e-05
-3.03461e-07
1.16945e-05
-3.00894e-07
1.17012e-05
-2.89199e-07
1.16931e-05
-2.72207e-07
1.16759e-05
-2.56109e-07
1.1655e-05
-2.40967e-07
-2.29888e-07
1.16316e-05
1.00366e-05
-1.07455e-07
1.02244e-05
-4.45887e-07
1.03809e-05
-5.90662e-07
1.04897e-05
-5.7661e-07
1.05468e-05
-5.06989e-07
1.05676e-05
-4.28084e-07
1.05834e-05
-3.68362e-07
1.06068e-05
-3.24787e-07
1.06344e-05
-3.02614e-07
1.06569e-05
-2.98676e-07
1.06709e-05
-3.04236e-07
1.06713e-05
-3.03871e-07
1.06553e-05
-2.84883e-07
1.06236e-05
-2.57506e-07
1.05795e-05
-2.28154e-07
1.05296e-05
-2.06148e-07
1.04796e-05
-1.91025e-07
-1.87305e-07
1.0437e-05
9.05013e-06
-3.5047e-07
9.17025e-06
-5.66006e-07
9.22058e-06
-6.40993e-07
9.24985e-06
-6.05877e-07
9.29208e-06
-5.49212e-07
9.35384e-06
-4.89853e-07
9.42155e-06
-4.3607e-07
9.4645e-06
-3.6774e-07
9.47114e-06
-3.09248e-07
9.4449e-06
-2.72438e-07
9.40141e-06
-2.60744e-07
9.3589e-06
-2.61361e-07
9.33189e-06
-2.57877e-07
9.32516e-06
-2.50778e-07
9.33619e-06
-2.39177e-07
9.35988e-06
-2.29837e-07
9.38995e-06
-2.21103e-07
-2.16963e-07
9.41961e-06
8.21225e-06
-4.65134e-07
8.3802e-06
-7.3395e-07
8.47931e-06
-7.4011e-07
8.51143e-06
-6.37994e-07
8.49399e-06
-5.31773e-07
8.48206e-06
-4.77925e-07
8.48071e-06
-4.34717e-07
8.49086e-06
-3.7789e-07
8.51198e-06
-3.30368e-07
8.53531e-06
-2.95764e-07
8.55085e-06
-2.76286e-07
8.55407e-06
-2.64586e-07
8.54602e-06
-2.49823e-07
8.53162e-06
-2.3638e-07
8.51775e-06
-2.25306e-07
8.50776e-06
-2.19849e-07
8.50219e-06
-2.1553e-07
-2.12448e-07
8.49768e-06
7.04352e-06
-4.60397e-07
7.25449e-06
-9.44925e-07
7.46336e-06
-9.48984e-07
7.5874e-06
-7.62031e-07
7.65867e-06
-6.03046e-07
7.69315e-06
-5.12401e-07
7.70725e-06
-4.48813e-07
7.71604e-06
-3.86683e-07
7.72305e-06
-3.37375e-07
7.72744e-06
-3.00153e-07
7.7269e-06
-2.75748e-07
7.7185e-06
-2.56192e-07
7.70424e-06
-2.35558e-07
7.68593e-06
-2.18069e-07
7.66696e-06
-2.0634e-07
7.64878e-06
-2.01671e-07
7.63155e-06
-1.98292e-07
-1.95528e-07
7.61463e-06
6.46004e-06
-6.71618e-07
6.75593e-06
-1.24081e-06
6.91063e-06
-1.10368e-06
6.96563e-06
-8.17032e-07
6.98266e-06
-6.20075e-07
6.9546e-06
-4.84336e-07
6.90265e-06
-3.96867e-07
6.84856e-06
-3.32592e-07
6.79882e-06
-2.87634e-07
6.75346e-06
-2.54799e-07
6.71018e-06
-2.32462e-07
6.66574e-06
-2.11756e-07
6.62278e-06
-1.926e-07
6.58046e-06
-1.75748e-07
6.5399e-06
-1.65772e-07
6.49793e-06
-1.59704e-07
6.4544e-06
-1.54766e-07
-1.45716e-07
6.40459e-06
5.77924e-06
-9.66281e-07
5.98092e-06
-1.44249e-06
5.97033e-06
-1.09309e-06
5.88775e-06
-7.34454e-07
5.76769e-06
-5.00016e-07
5.63254e-06
-3.49187e-07
5.49321e-06
-2.5754e-07
5.36131e-06
-2.00694e-07
5.24085e-06
-1.67175e-07
5.13256e-06
-1.46503e-07
5.0329e-06
-1.32806e-07
4.93956e-06
-1.18415e-07
4.85183e-06
-1.04864e-07
4.7675e-06
-9.14243e-08
4.6882e-06
-8.64744e-08
4.61117e-06
-8.26711e-08
4.54067e-06
-8.4264e-08
-7.57352e-08
4.47069e-06
5.13722e-06
-1.07824e-06
4.83407e-06
-1.13935e-06
4.42311e-06
-6.82125e-07
4.06286e-06
-3.74206e-07
3.76197e-06
-1.99131e-07
3.52099e-06
-1.08203e-07
3.32749e-06
-6.40439e-08
3.17012e-06
-4.33261e-08
3.03779e-06
-3.4842e-08
2.92307e-06
-3.17808e-08
2.82135e-06
-3.10865e-08
2.73208e-06
-2.91409e-08
2.65385e-06
-2.66366e-08
2.58579e-06
-2.33716e-08
2.5231e-06
-2.37816e-08
2.46368e-06
-2.32476e-08
2.4093e-06
-2.98808e-08
-2.30801e-08
2.35664e-06
3.51472e-06
2.37537e-06
1.69324e-06
1.31904e-06
1.11991e-06
1.0117e-06
9.47659e-07
9.04333e-07
8.69491e-07
8.3771e-07
8.06624e-07
7.77483e-07
7.50846e-07
7.27475e-07
7.03693e-07
6.80446e-07
6.50565e-07
6.27485e-07
-1.23003e-07
1.23003e-07
-2.49022e-07
1.26018e-07
-3.74098e-07
1.25076e-07
-4.98818e-07
1.2472e-07
-6.22511e-07
1.23693e-07
-7.44561e-07
1.2205e-07
-8.64295e-07
1.19734e-07
-9.80962e-07
1.16666e-07
-1.09379e-06
1.12826e-07
-1.20197e-06
1.0818e-07
-1.3047e-06
1.02728e-07
-1.40101e-06
9.63154e-08
-1.48996e-06
8.89515e-08
-1.5706e-06
8.06371e-08
-1.64191e-06
7.13072e-08
-1.70288e-06
6.09747e-08
-1.75254e-06
4.96591e-08
-1.79004e-06
3.75005e-08
-1.81446e-06
2.44208e-08
-1.82521e-06
1.07466e-08
-1.82124e-06
-3.96371e-09
-1.80203e-06
-1.92165e-08
-1.7674e-06
-3.46329e-08
-1.71733e-06
-5.00684e-08
-1.65209e-06
-6.52335e-08
-1.57212e-06
-7.9971e-08
-1.47814e-06
-9.3978e-08
-1.37091e-06
-1.07237e-07
-1.25144e-06
-1.19472e-07
-1.1209e-06
-1.30534e-07
-9.80593e-07
-1.40308e-07
-8.31871e-07
-1.48722e-07
-6.76184e-07
-1.55687e-07
-5.14994e-07
-1.6119e-07
-3.49745e-07
-1.65249e-07
-1.81862e-07
-1.67883e-07
-1.26528e-08
-1.69209e-07
1.56685e-07
-1.69338e-07
3.24829e-07
-1.68144e-07
4.90706e-07
-1.65877e-07
6.53348e-07
-1.62642e-07
8.11894e-07
-1.58547e-07
9.65594e-07
-1.537e-07
1.11381e-06
-1.48214e-07
1.25601e-06
-1.42203e-07
1.39179e-06
-1.35774e-07
1.52081e-06
-1.29025e-07
1.64285e-06
-1.22044e-07
1.75777e-06
-1.14919e-07
1.8655e-06
-1.07729e-07
1.96605e-06
-1.00543e-07
2.05946e-06
-9.34177e-08
2.14587e-06
-8.64044e-08
2.22542e-06
-7.95538e-08
2.29833e-06
-7.2906e-08
2.36481e-06
-6.64877e-08
2.42514e-06
-6.03204e-08
2.47956e-06
-5.44279e-08
2.52839e-06
-4.88301e-08
2.57193e-06
-4.35342e-08
2.61047e-06
-3.85393e-08
2.64431e-06
-3.38474e-08
2.67378e-06
-2.94629e-08
2.69916e-06
-2.53833e-08
2.72076e-06
-2.15966e-08
2.73885e-06
-1.80897e-08
2.7537e-06
-1.48575e-08
2.76559e-06
-1.18889e-08
2.77476e-06
-9.17097e-09
2.78145e-06
-6.69091e-09
2.78589e-06
-4.43439e-09
2.78829e-06
-2.40057e-09
2.78887e-06
-5.79226e-10
2.78773e-06
1.13728e-09
2.78509e-06
2.64594e-09
2.78111e-06
3.98078e-09
2.77593e-06
5.17855e-09
2.76967e-06
6.25644e-09
2.76245e-06
7.22109e-09
2.75437e-06
8.08271e-09
2.74552e-06
8.84929e-09
2.73599e-06
9.52928e-09
2.72584e-06
1.01429e-08
2.71516e-06
1.06803e-08
2.70402e-06
1.1145e-08
2.6924e-06
1.16155e-08
2.68038e-06
1.2023e-08
2.66802e-06
1.23609e-08
2.65537e-06
1.26488e-08
2.64247e-06
1.29019e-08
2.62935e-06
1.31218e-08
2.61603e-06
1.33141e-08
2.60255e-06
1.34881e-08
2.58891e-06
1.3636e-08
2.57515e-06
1.37575e-08
2.56129e-06
1.38642e-08
2.54733e-06
1.39597e-08
2.53329e-06
1.40393e-08
2.51919e-06
1.41035e-08
2.50503e-06
1.41539e-08
2.49084e-06
1.41918e-08
2.47662e-06
1.42215e-08
2.46237e-06
1.42461e-08
2.44811e-06
1.42647e-08
2.43383e-06
1.4275e-08
2.41956e-06
1.42767e-08
2.40528e-06
1.42728e-08
2.39102e-06
1.42669e-08
2.37676e-06
1.42598e-08
2.36251e-06
1.42492e-08
2.34827e-06
1.42324e-08
2.33406e-06
1.42097e-08
2.31988e-06
1.41842e-08
2.30572e-06
1.41592e-08
2.29159e-06
1.41346e-08
2.27748e-06
1.41079e-08
2.2634e-06
1.40769e-08
2.24936e-06
1.40417e-08
2.23536e-06
1.40046e-08
2.22139e-06
1.39679e-08
2.20746e-06
1.39321e-08
2.19356e-06
1.38961e-08
2.1797e-06
1.38583e-08
2.16588e-06
1.38177e-08
2.15211e-06
1.37743e-08
2.13838e-06
1.37292e-08
2.1247e-06
1.36842e-08
2.11105e-06
1.36407e-08
2.09746e-06
1.35987e-08
2.0839e-06
1.3557e-08
2.07039e-06
1.35134e-08
2.05692e-06
1.34668e-08
2.0435e-06
1.34177e-08
2.03013e-06
1.33684e-08
2.01681e-06
1.33211e-08
2.00354e-06
1.32763e-08
1.9903e-06
1.32323e-08
1.97712e-06
1.31865e-08
1.96398e-06
1.31369e-08
1.9509e-06
1.30844e-08
1.93786e-06
1.3032e-08
1.92488e-06
1.29824e-08
1.91195e-06
1.29357e-08
1.89906e-06
1.28897e-08
1.88621e-06
1.28419e-08
1.87342e-06
1.27914e-08
1.86068e-06
1.2739e-08
1.848e-06
1.2687e-08
1.83536e-06
1.26378e-08
1.82277e-06
1.25924e-08
1.81022e-06
1.25494e-08
1.79771e-06
1.25075e-08
1.78524e-06
1.24662e-08
1.77282e-06
1.24261e-08
1.76043e-06
1.23889e-08
1.74807e-06
1.23566e-08
1.73574e-06
1.23307e-08
1.72343e-06
1.23146e-08
1.71112e-06
1.23095e-08
1.6988e-06
1.23174e-08
1.68645e-06
1.23463e-08
1.67407e-06
1.2384e-08
1.66159e-06
1.24804e-08
1.64906e-06
1.25334e-08
1.63623e-06
1.28212e-08
1.62349e-06
1.2743e-08
1.60982e-06
1.36744e-08
1.59701e-06
1.28089e-08
1.58125e-06
1.57532e-08
1.56897e-06
1.22832e-08
1.54892e-06
2.0054e-08
1.53759e-06
1.13258e-08
1.51071e-06
2.68806e-08
1.49848e-06
1.22275e-08
1.46203e-06
3.6452e-08
1.44452e-06
1.75146e-08
1.38759e-06
5.693e-08
1.36224e-06
2.53492e-08
1.24676e-06
1.15477e-07
3.88966e-08
1.20786e-06
-1.23647e-07
2.46651e-07
-2.52434e-07
2.54804e-07
-3.80003e-07
2.52646e-07
-5.07313e-07
2.5203e-07
-6.33715e-07
2.50095e-07
-7.58592e-07
2.46927e-07
-8.81226e-07
2.42367e-07
-1.00088e-06
2.36325e-07
-1.11679e-06
2.28729e-07
-1.22798e-06
2.19378e-07
-1.33351e-06
2.08254e-07
-1.43235e-06
1.95158e-07
-1.52345e-06
1.80045e-07
-1.60569e-06
1.6288e-07
-1.67797e-06
1.43583e-07
-1.73912e-06
1.22127e-07
-1.78803e-06
9.85712e-08
-1.82374e-06
7.32111e-08
-1.84532e-06
4.59963e-08
-1.85193e-06
1.73573e-08
-1.84252e-06
-1.33678e-08
-1.81666e-06
-4.50792e-08
-1.77406e-06
-7.72309e-08
-1.71472e-06
-1.09416e-07
-1.63888e-06
-1.4107e-07
-1.54696e-06
-1.71894e-07
-1.43965e-06
-2.01285e-07
-1.31784e-06
-2.29044e-07
-1.18267e-06
-2.54648e-07
-1.03522e-06
-2.77978e-07
-8.7688e-07
-2.98651e-07
-7.09037e-07
-3.16565e-07
-5.33102e-07
-3.31621e-07
-3.50512e-07
-3.4378e-07
-1.62685e-07
-3.53076e-07
2.89936e-08
-3.59562e-07
2.23184e-07
-3.63399e-07
4.18617e-07
-3.64771e-07
6.14276e-07
-3.63803e-07
8.09107e-07
-3.60709e-07
1.00217e-06
-3.55708e-07
1.19264e-06
-3.49018e-07
1.3798e-06
-3.40856e-07
1.56302e-06
-3.31435e-07
1.74178e-06
-3.20963e-07
1.91564e-06
-3.09634e-07
2.08425e-06
-2.97629e-07
2.24731e-06
-2.85112e-07
2.40463e-06
-2.72237e-07
2.55605e-06
-2.59143e-07
2.70145e-06
-2.4595e-07
2.8408e-06
-2.32762e-07
2.97406e-06
-2.19672e-07
3.10127e-06
-2.06764e-07
3.22247e-06
-1.94108e-07
3.33775e-06
-1.8176e-07
3.44719e-06
-1.69765e-07
3.55092e-06
-1.58161e-07
3.64908e-06
-1.46982e-07
3.7418e-06
-1.36254e-07
3.82924e-06
-1.25987e-07
3.91159e-06
-1.16191e-07
3.989e-06
-1.06873e-07
4.06165e-06
-9.80346e-08
4.12973e-06
-8.96742e-08
4.19342e-06
-8.17798e-08
4.2529e-06
-7.4344e-08
4.30837e-06
-6.73523e-08
4.35999e-06
-6.07914e-08
4.40795e-06
-5.46517e-08
4.45242e-06
-4.89042e-08
4.49356e-06
-4.35409e-08
4.53152e-06
-3.85452e-08
4.56654e-06
-3.3882e-08
4.59873e-06
-2.95412e-08
4.62822e-06
-2.55112e-08
4.65517e-06
-2.17712e-08
4.67972e-06
-1.82908e-08
4.702e-06
-1.50611e-08
4.72215e-06
-1.20612e-08
4.74027e-06
-9.27771e-09
4.7565e-06
-6.70037e-09
4.77095e-06
-4.30066e-09
4.78372e-06
-2.09718e-09
4.79497e-06
-9.73845e-11
4.80463e-06
1.95197e-09
4.8129e-06
3.75037e-09
4.81986e-06
5.39998e-09
4.82558e-06
6.93385e-09
4.83012e-06
8.35881e-09
4.83357e-06
9.67615e-09
4.83598e-06
1.08965e-08
4.83743e-06
1.20378e-08
4.83797e-06
1.3096e-08
4.83766e-06
1.40765e-08
4.83653e-06
1.49924e-08
4.83464e-06
1.58515e-08
4.83203e-06
1.66458e-08
4.82875e-06
1.73828e-08
4.82483e-06
1.80687e-08
4.82032e-06
1.87059e-08
4.81524e-06
1.93002e-08
4.80963e-06
1.98571e-08
4.80352e-06
2.03783e-08
4.79693e-06
2.08638e-08
4.78989e-06
2.13151e-08
4.78243e-06
2.17362e-08
4.77456e-06
2.2132e-08
4.76632e-06
2.25053e-08
4.75771e-06
2.28557e-08
4.74876e-06
2.3182e-08
4.73948e-06
2.34851e-08
4.7299e-06
2.3769e-08
4.72002e-06
2.4038e-08
4.70986e-06
2.42933e-08
4.69944e-06
2.45333e-08
4.68876e-06
2.47571e-08
4.67783e-06
2.4966e-08
4.66667e-06
2.51628e-08
4.65529e-06
2.53507e-08
4.64369e-06
2.55308e-08
4.63189e-06
2.57016e-08
4.61988e-06
2.58621e-08
4.60769e-06
2.60125e-08
4.59531e-06
2.61537e-08
4.58275e-06
2.62878e-08
4.57002e-06
2.64169e-08
4.55712e-06
2.65424e-08
4.54405e-06
2.66642e-08
4.53083e-06
2.67816e-08
4.51745e-06
2.68928e-08
4.50392e-06
2.69971e-08
4.49024e-06
2.70957e-08
4.47642e-06
2.71914e-08
4.46245e-06
2.72866e-08
4.44835e-06
2.73817e-08
4.4341e-06
2.74755e-08
4.41972e-06
2.75648e-08
4.40521e-06
2.76479e-08
4.39057e-06
2.77256e-08
4.3758e-06
2.78019e-08
4.3609e-06
2.78803e-08
4.34588e-06
2.7961e-08
4.33073e-06
2.80414e-08
4.31545e-06
2.81185e-08
4.30005e-06
2.81913e-08
4.28453e-06
2.8261e-08
4.26888e-06
2.8331e-08
4.25312e-06
2.84051e-08
4.23722e-06
2.84846e-08
4.22121e-06
2.85675e-08
4.20506e-06
2.86523e-08
4.18879e-06
2.8739e-08
4.17239e-06
2.8829e-08
4.15585e-06
2.89258e-08
4.13917e-06
2.90331e-08
4.12235e-06
2.91537e-08
4.10537e-06
2.92937e-08
4.08822e-06
2.94559e-08
4.07089e-06
2.96483e-08
4.05336e-06
2.98763e-08
4.03559e-06
3.01523e-08
4.01759e-06
3.04837e-08
3.99923e-06
3.08962e-08
3.98062e-06
3.14287e-08
3.96139e-06
3.19752e-08
3.9419e-06
3.31589e-08
3.92153e-06
3.31785e-08
3.90015e-06
3.71425e-08
3.87928e-06
3.31448e-08
3.85246e-06
4.68776e-08
3.83407e-06
2.97182e-08
3.79483e-06
6.61141e-08
3.78136e-06
2.57054e-08
3.72427e-06
9.35409e-08
3.70849e-06
3.32894e-08
3.63117e-06
1.34251e-07
3.59525e-06
6.12726e-08
3.48182e-06
2.28905e-07
1.60355e-07
3.36036e-06
-1.24791e-07
3.71442e-07
-2.58387e-07
3.884e-07
-3.90798e-07
3.85057e-07
-5.23179e-07
3.84411e-07
-6.54882e-07
3.81797e-07
-7.8533e-07
3.77375e-07
-9.13871e-07
3.70909e-07
-1.03973e-06
3.62182e-07
-1.16204e-06
3.51039e-07
-1.27991e-06
3.37254e-07
-1.39232e-06
3.20659e-07
-1.49816e-06
3.01001e-07
-1.59631e-06
2.7819e-07
-1.68544e-06
2.52013e-07
-1.76436e-06
2.22505e-07
-1.83187e-06
1.89635e-07
-1.88662e-06
1.53322e-07
-1.92741e-06
1.14004e-07
-1.95323e-06
7.18116e-08
-1.9633e-06
2.74319e-08
-1.95616e-06
-2.05124e-08
-1.93102e-06
-7.02131e-08
-1.88781e-06
-1.20446e-07
-1.82657e-06
-1.70657e-07
-1.74754e-06
-2.20096e-07
-1.65122e-06
-2.68212e-07
-1.5385e-06
-3.14014e-07
-1.41053e-06
-3.57007e-07
-1.26845e-06
-3.96735e-07
-1.11386e-06
-4.32563e-07
-9.48242e-07
-4.6427e-07
-7.73206e-07
-4.91601e-07
-5.90346e-07
-5.14481e-07
-4.012e-07
-5.32926e-07
-2.07289e-07
-5.46988e-07
-1.00876e-08
-5.56763e-07
1.8908e-07
-5.62567e-07
3.88978e-07
-5.64668e-07
5.88514e-07
-5.63339e-07
7.86699e-07
-5.58893e-07
9.82659e-07
-5.51668e-07
1.17564e-06
-5.41998e-07
1.365e-06
-5.30213e-07
1.5502e-06
-5.16635e-07
1.7308e-06
-5.01571e-07
1.90647e-06
-4.85305e-07
2.07694e-06
-4.68094e-07
2.242e-06
-4.50175e-07
2.40153e-06
-4.31762e-07
2.55543e-06
-4.13045e-07
2.70367e-06
-3.94189e-07
2.84624e-06
-3.75336e-07
2.98319e-06
-3.56614e-07
3.11455e-06
-3.38128e-07
3.24041e-06
-3.19967e-07
3.36085e-06
-3.02203e-07
3.47599e-06
-2.84901e-07
3.58594e-06
-2.68112e-07
3.69083e-06
-2.51873e-07
3.79079e-06
-2.36213e-07
3.88595e-06
-2.21151e-07
3.97647e-06
-2.06704e-07
4.06247e-06
-1.92881e-07
4.14412e-06
-1.79682e-07
4.22155e-06
-1.67105e-07
4.29491e-06
-1.55143e-07
4.36435e-06
-1.43783e-07
4.43002e-06
-1.33015e-07
4.49205e-06
-1.2282e-07
4.55058e-06
-1.13184e-07
4.60576e-06
-1.04086e-07
4.65772e-06
-9.55009e-08
4.7066e-06
-8.74226e-08
4.75254e-06
-7.9823e-08
4.79566e-06
-7.26669e-08
4.83609e-06
-6.59387e-08
4.87394e-06
-5.96197e-08
4.90933e-06
-5.3685e-08
4.94239e-06
-4.8114e-08
4.97321e-06
-4.28866e-08
5.00192e-06
-3.79856e-08
5.02862e-06
-3.33982e-08
5.0534e-06
-2.90876e-08
5.07635e-06
-2.50444e-08
5.09752e-06
-2.12628e-08
5.11713e-06
-1.7662e-08
5.13517e-06
-1.42926e-08
5.15174e-06
-1.11609e-08
5.1669e-06
-8.23388e-09
5.18075e-06
-5.48947e-09
5.19334e-06
-2.91649e-09
5.20476e-06
-5.18879e-10
5.21505e-06
1.7507e-09
5.22428e-06
3.85841e-09
5.23252e-06
5.84215e-09
5.2398e-06
7.7092e-09
5.24618e-06
9.47267e-09
5.25171e-06
1.11135e-08
5.25645e-06
1.26496e-08
5.26043e-06
1.40889e-08
5.26369e-06
1.54382e-08
5.26629e-06
1.6706e-08
5.26825e-06
1.78992e-08
5.2696e-06
1.90214e-08
5.27039e-06
2.00753e-08
5.27064e-06
2.10646e-08
5.27038e-06
2.19937e-08
5.26965e-06
2.28676e-08
5.26846e-06
2.36915e-08
5.26685e-06
2.44689e-08
5.26483e-06
2.52014e-08
5.26242e-06
2.58908e-08
5.25965e-06
2.65396e-08
5.25654e-06
2.71515e-08
5.2531e-06
2.77296e-08
5.24936e-06
2.82759e-08
5.24533e-06
2.87928e-08
5.24101e-06
2.92822e-08
5.23643e-06
2.97465e-08
5.23159e-06
3.01876e-08
5.22651e-06
3.06062e-08
5.22121e-06
3.10031e-08
5.21569e-06
3.13797e-08
5.20997e-06
3.17384e-08
5.20404e-06
3.20809e-08
5.19792e-06
3.24091e-08
5.19161e-06
3.27243e-08
5.18513e-06
3.30268e-08
5.17847e-06
3.33179e-08
5.17166e-06
3.35975e-08
5.16468e-06
3.38663e-08
5.15756e-06
3.41246e-08
5.15028e-06
3.43741e-08
5.14285e-06
3.46166e-08
5.13529e-06
3.48541e-08
5.12758e-06
3.50872e-08
5.11974e-06
3.53152e-08
5.11177e-06
3.55365e-08
5.10367e-06
3.57502e-08
5.09543e-06
3.59575e-08
5.08707e-06
3.6162e-08
5.07859e-06
3.63667e-08
5.06998e-06
3.65718e-08
5.06124e-06
3.67751e-08
5.05239e-06
3.69745e-08
5.04341e-06
3.71695e-08
5.03431e-06
3.73623e-08
5.02508e-06
3.75565e-08
5.01573e-06
3.77556e-08
5.00626e-06
3.79604e-08
4.99665e-06
3.81695e-08
4.98692e-06
3.83819e-08
4.97706e-06
3.85992e-08
4.96707e-06
3.88239e-08
4.95694e-06
3.90602e-08
4.94666e-06
3.93128e-08
4.93622e-06
3.95862e-08
4.92563e-06
3.98855e-08
4.91486e-06
4.02225e-08
4.90392e-06
4.05936e-08
4.89276e-06
4.10391e-08
4.8814e-06
4.15133e-08
4.86972e-06
4.21561e-08
4.85787e-06
4.27527e-08
4.84547e-06
4.38282e-08
4.83305e-06
4.43949e-08
4.81945e-06
4.67535e-08
4.80653e-06
4.60995e-08
4.79066e-06
5.3018e-08
4.77774e-06
4.60567e-08
4.7572e-06
6.74195e-08
4.74551e-06
4.14097e-08
4.7168e-06
9.48277e-08
4.70564e-06
3.68652e-08
4.6686e-06
1.30579e-07
4.64664e-06
5.52448e-08
4.60749e-06
1.7341e-07
4.55134e-06
1.1742e-07
4.50895e-06
2.71292e-07
2.67213e-07
4.40209e-06
-1.26259e-07
4.97701e-07
-2.6686e-07
5.29001e-07
-4.06371e-07
5.24568e-07
-5.46108e-07
5.24148e-07
-6.85465e-07
5.21155e-07
-8.23908e-07
5.15818e-07
-9.60811e-07
5.07812e-07
-1.0955e-06
4.96875e-07
-1.22709e-06
4.82625e-07
-1.35464e-06
4.64799e-07
-1.47702e-06
4.43049e-07
-1.593e-06
4.16978e-07
-1.70125e-06
3.86441e-07
-1.80035e-06
3.51112e-07
-1.88874e-06
3.10888e-07
-1.96493e-06
2.65827e-07
-2.02741e-06
2.1581e-07
-2.0747e-06
1.61289e-07
-2.10548e-06
1.02592e-07
-2.11848e-06
4.04361e-08
-2.11252e-06
-2.64806e-08
-2.0864e-06
-9.63294e-08
-2.0399e-06
-1.66947e-07
-1.97304e-06
-2.3752e-07
-1.88609e-06
-3.07043e-07
-1.7801e-06
-3.742e-07
-1.65595e-06
-4.38168e-07
-1.51517e-06
-4.9778e-07
-1.35956e-06
-5.52347e-07
-1.19088e-06
-6.01248e-07
-1.01102e-06
-6.44131e-07
-8.21882e-07
-6.80735e-07
-6.25394e-07
-7.10969e-07
-4.23367e-07
-7.34953e-07
-2.17518e-07
-7.52837e-07
-9.31189e-09
-7.64969e-07
1.99643e-07
-7.71522e-07
4.08213e-07
-7.73238e-07
6.15258e-07
-7.70384e-07
8.19793e-07
-7.63428e-07
1.02098e-06
-7.52856e-07
1.21813e-06
-7.3915e-07
1.41069e-06
-7.22768e-07
1.59819e-06
-7.04141e-07
1.7803e-06
-6.83678e-07
1.95675e-06
-6.61751e-07
2.12735e-06
-6.38702e-07
2.29202e-06
-6.14838e-07
2.45069e-06
-5.9043e-07
2.60335e-06
-5.6571e-07
2.75004e-06
-5.40878e-07
2.89082e-06
-5.16112e-07
3.02577e-06
-4.91565e-07
3.155e-06
-4.67364e-07
3.27865e-06
-4.43608e-07
3.39683e-06
-4.20384e-07
3.50969e-06
-3.97766e-07
3.61739e-06
-3.75811e-07
3.72008e-06
-3.54558e-07
3.8179e-06
-3.34037e-07
3.91102e-06
-3.14273e-07
3.9996e-06
-2.95285e-07
4.0838e-06
-2.77076e-07
4.16376e-06
-2.59645e-07
4.23964e-06
-2.42987e-07
4.3116e-06
-2.27096e-07
4.37977e-06
-2.11959e-07
4.44431e-06
-1.97558e-07
4.50537e-06
-1.83871e-07
4.56306e-06
-1.70882e-07
4.61755e-06
-1.58569e-07
4.66895e-06
-1.46906e-07
4.7174e-06
-1.35873e-07
4.76302e-06
-1.25441e-07
4.80593e-06
-1.15579e-07
4.84626e-06
-1.06264e-07
4.88411e-06
-9.74692e-08
4.9196e-06
-8.91738e-08
4.95283e-06
-8.13503e-08
4.98393e-06
-7.39792e-08
5.01297e-06
-6.70334e-08
5.04006e-06
-6.04856e-08
5.06529e-06
-5.43164e-08
5.08874e-06
-4.84979e-08
5.11051e-06
-4.30267e-08
5.13071e-06
-3.787e-08
5.14943e-06
-3.30037e-08
5.1667e-06
-2.84316e-08
5.1826e-06
-2.41363e-08
5.19721e-06
-2.00983e-08
5.21059e-06
-1.63026e-08
5.2228e-06
-1.27301e-08
5.23392e-06
-9.36835e-09
5.24399e-06
-6.20875e-09
5.25306e-06
-3.23075e-09
5.26123e-06
-4.58011e-10
5.2685e-06
2.20701e-09
5.27493e-06
4.68156e-09
5.28057e-06
7.01239e-09
5.28545e-06
9.20103e-09
5.28963e-06
1.12571e-08
5.29315e-06
1.31928e-08
5.29603e-06
1.50168e-08
5.29832e-06
1.67343e-08
5.30004e-06
1.83509e-08
5.30123e-06
1.98719e-08
5.30193e-06
2.13026e-08
5.30214e-06
2.26489e-08
5.30192e-06
2.39183e-08
5.30127e-06
2.51174e-08
5.30022e-06
2.625e-08
5.29879e-06
2.7318e-08
5.29701e-06
2.83237e-08
5.29489e-06
2.927e-08
5.29246e-06
3.01621e-08
5.28973e-06
3.10062e-08
5.28671e-06
3.18071e-08
5.28343e-06
3.25675e-08
5.27989e-06
3.32885e-08
5.2761e-06
3.39706e-08
5.2721e-06
3.46143e-08