/*--------------------------------*- C++ -*----------------------------------*\
| =========                 |                                                 |
| \\      /  F ield         | OpenFOAM: The Open Source CFD Toolbox           |
|  \\    /   O peration     | Version:  2.1.x                                 |
|   \\  /    A nd           | Web:      www.OpenFOAM.org                      |
|    \\/     M anipulation  |                                                 |
\*---------------------------------------------------------------------------*/
FoamFile
{
    version     2.0;
    format      ascii;
    class       surfaceScalarField;
    location    "0.005";
    object      phi_0;
}
// * * * * * * * * * * * * * * * * * * * * * * * * * * * * * * * * * * * * * //

dimensions      [0 3 -1 0 0 0 0];

internalField   nonuniform List<scalar> 
24170
(
1.90723e-06
1.23921e-06
1.14974e-06
7.57495e-07
8.38395e-07
3.11341e-07
7.0492e-07
1.33475e-07
6.35893e-07
6.90273e-08
6.02773e-07
3.31193e-08
5.98528e-07
4.24525e-09
5.93153e-07
5.37511e-09
5.73263e-07
1.98895e-08
5.66119e-07
7.14431e-09
5.74569e-07
-8.44939e-09
5.88444e-07
-1.38757e-08
6.01402e-07
-1.29582e-08
6.07627e-07
-6.22483e-09
6.08737e-07
-1.10938e-09
6.29521e-07
-2.07839e-08
6.55778e-07
-2.62571e-08
-6.81662e-08
7.23944e-07
3.34616e-06
1.3234e-06
2.88825e-06
1.2154e-06
2.52688e-06
6.72715e-07
2.25771e-06
4.02647e-07
2.06208e-06
2.64658e-07
1.94795e-06
1.47242e-07
1.88828e-06
6.39155e-08
1.83527e-06
5.83893e-08
1.78322e-06
7.19386e-08
1.75853e-06
3.18313e-08
1.76222e-06
-1.21324e-08
1.77536e-06
-2.70232e-08
1.78667e-06
-2.42679e-08
1.79483e-06
-1.43826e-08
1.80203e-06
-8.31091e-09
1.82551e-06
-4.42587e-08
1.8896e-06
-9.03475e-08
-1.62879e-07
1.98431e-06
4.07493e-06
1.01694e-06
4.01327e-06
1.27707e-06
3.86317e-06
8.22807e-07
3.67618e-06
5.8964e-07
3.48496e-06
4.55875e-07
3.35106e-06
2.81147e-07
3.26503e-06
1.49949e-07
3.17973e-06
1.4368e-07
3.09971e-06
1.51962e-07
3.04285e-06
8.86926e-08
3.01525e-06
1.54705e-08
3.02013e-06
-3.19049e-08
3.02809e-06
-3.22287e-08
3.03811e-06
-2.44009e-08
3.05219e-06
-2.23985e-08
3.0672e-06
-5.92628e-08
3.11764e-06
-1.40786e-07
-2.30511e-07
3.18527e-06
4.4251e-06
8.47849e-07
4.57579e-06
1.12638e-06
4.61846e-06
7.80134e-07
4.63251e-06
5.75594e-07
4.5785e-06
5.09881e-07
4.5098e-06
3.49845e-07
4.45309e-06
2.06662e-07
4.39956e-06
1.97215e-07
4.35856e-06
1.92957e-07
4.3183e-06
1.28949e-07
4.2578e-06
7.59794e-08
4.21695e-06
8.94104e-09
4.21362e-06
-2.89007e-08
4.23526e-06
-4.60439e-08
4.26249e-06
-4.96198e-08
4.29451e-06
-9.12904e-08
4.37567e-06
-2.2194e-07
-2.28651e-07
4.37381e-06
4.87783e-06
6.82635e-07
5.00524e-06
9.9897e-07
5.08926e-06
6.96115e-07
5.20398e-06
4.60873e-07
5.22415e-06
4.89717e-07
5.15188e-06
4.22115e-07
5.07077e-06
2.87765e-07
5.06896e-06
1.99026e-07
5.14593e-06
1.15992e-07
5.21571e-06
5.91705e-08
5.20967e-06
8.20183e-08
5.15916e-06
5.94492e-08
5.14023e-06
-9.96896e-09
5.14697e-06
-5.2785e-08
5.15264e-06
-5.52927e-08
5.22017e-06
-1.58822e-07
5.34028e-06
-3.42042e-07
-1.78266e-07
5.28989e-06
5.30624e-06
4.53924e-07
5.42355e-06
8.81663e-07
5.48278e-06
6.36885e-07
5.56582e-06
3.77833e-07
5.61366e-06
4.41881e-07
5.58791e-06
4.47863e-07
5.55374e-06
3.21937e-07
5.58592e-06
1.66844e-07
5.65804e-06
4.38742e-08
5.72184e-06
-4.62798e-09
5.77146e-06
3.23941e-08
5.79334e-06
3.75738e-08
5.76929e-06
1.40822e-08
5.72924e-06
-1.27353e-08
5.75975e-06
-8.58033e-08
5.83256e-06
-2.31635e-07
5.81914e-06
-3.28623e-07
-8.30599e-08
5.72393e-06
5.75163e-06
2.93416e-07
5.9237e-06
7.09595e-07
6.00712e-06
5.53461e-07
6.02497e-06
3.59985e-07
6.06911e-06
3.97745e-07
6.10723e-06
4.09738e-07
6.13822e-06
2.90951e-07
6.16224e-06
1.4282e-07
6.17994e-06
2.61823e-08
6.19832e-06
-2.30166e-08
6.22896e-06
1.75883e-09
6.23745e-06
2.90786e-08
6.23864e-06
1.28978e-08
6.25214e-06
-2.62355e-08
6.26256e-06
-9.62226e-08
6.225e-06
-1.94075e-07
6.17297e-06
-2.76592e-07
-1.20675e-07
6.21058e-06
4.34693e-06
2.47196e-07
4.55822e-06
4.98309e-07
4.67461e-06
4.37067e-07
4.69813e-06
3.36462e-07
4.72142e-06
3.74456e-07
4.76117e-06
3.69994e-07
4.79457e-06
2.57544e-07
4.80731e-06
1.30079e-07
4.80603e-06
2.74692e-08
4.79647e-06
-1.3459e-08
4.78404e-06
1.41858e-08
4.78331e-06
2.98053e-08
4.80296e-06
-6.752e-09
4.82041e-06
-4.3684e-08
4.81063e-06
-8.64385e-08
4.79283e-06
-1.76281e-07
4.81413e-06
-2.97888e-07
-1.62151e-07
4.8556e-06
5.08599e-06
1.66797e-07
5.30971e-06
2.74595e-07
5.42364e-06
3.2313e-07
5.43932e-06
3.20781e-07
5.43516e-06
3.7862e-07
5.45093e-06
3.54224e-07
5.47554e-06
2.32938e-07
5.50059e-06
1.05025e-07
5.51966e-06
8.40339e-09
5.53727e-06
-3.1068e-08
5.55656e-06
-5.1081e-09
5.57062e-06
1.57479e-08
5.56684e-06
-2.96956e-09
5.54696e-06
-2.38045e-08
5.53793e-06
-7.74163e-08
5.56235e-06
-2.00693e-07
5.6012e-06
-3.36737e-07
-1.76562e-07
5.61561e-06
6.09992e-06
1.77572e-07
6.10084e-06
2.73678e-07
6.13178e-06
2.92189e-07
6.16505e-06
2.87512e-07
6.21883e-06
3.24837e-07
6.28778e-06
2.85276e-07
6.34311e-06
1.77601e-07
6.36831e-06
7.98279e-08
6.3754e-06
1.31922e-09
6.37441e-06
-3.00847e-08
6.38217e-06
-1.28619e-08
6.39873e-06
-8.12256e-10
6.42801e-06
-3.22524e-08
6.46829e-06
-6.40829e-08
6.49466e-06
-1.0379e-07
6.47462e-06
-1.80649e-07
6.42712e-06
-2.89246e-07
-1.98591e-07
6.44915e-06
7.10498e-06
1.71324e-07
7.10772e-06
2.70945e-07
7.09178e-06
3.08124e-07
7.08538e-06
2.93909e-07
7.12671e-06
2.83511e-07
7.20224e-06
2.09745e-07
7.28151e-06
9.83326e-08
7.34864e-06
1.26962e-08
7.39405e-06
-4.40929e-08
7.43603e-06
-7.20644e-08
7.49053e-06
-6.73587e-08
7.53818e-06
-4.84635e-08
7.57866e-06
-7.27329e-08
7.62942e-06
-1.14846e-07
7.67048e-06
-1.44843e-07
7.66023e-06
-1.70396e-07
7.63391e-06
-2.62934e-07
-3.374e-07
7.77272e-06
8.29054e-06
1.54236e-07
8.21829e-06
3.43199e-07
8.18368e-06
3.42736e-07
8.20141e-06
2.76175e-07
8.28698e-06
1.97936e-07
8.39525e-06
1.01477e-07
8.48082e-06
1.27666e-08
8.53874e-06
-4.52231e-08
8.57225e-06
-7.76092e-08
8.58903e-06
-8.88364e-08
8.61606e-06
-9.43918e-08
8.64883e-06
-8.12364e-08
8.67211e-06
-9.60085e-08
8.68873e-06
-1.31465e-07
8.69036e-06
-1.46476e-07
8.66603e-06
-1.4607e-07
8.69131e-06
-2.88213e-07
-5.27665e-07
8.88158e-06
9.55369e-06
2.15549e-07
9.48437e-06
4.1252e-07
9.5191e-06
3.07998e-07
9.5804e-06
2.1488e-07
9.65622e-06
1.2212e-07
9.73647e-06
2.12232e-08
9.80665e-06
-5.74151e-08
9.85843e-06
-9.70035e-08
9.88966e-06
-1.08833e-07
9.89994e-06
-9.91181e-08
9.90003e-06
-9.44828e-08
9.9088e-06
-9.0006e-08
9.91928e-06
-1.06494e-07
9.93857e-06
-1.50751e-07
9.9721e-06
-1.80006e-07
1.00305e-05
-2.04433e-07
1.00571e-05
-3.14849e-07
-4.33915e-07
9.96335e-06
1.08361e-05
1.01376e-07
1.11002e-05
1.48411e-07
1.12767e-05
1.31588e-07
1.13791e-05
1.12411e-07
1.14105e-05
9.07922e-08
1.14003e-05
3.13753e-08
1.13855e-05
-4.26457e-08
1.13806e-05
-9.2083e-08
1.13896e-05
-1.17787e-07
1.14172e-05
-1.26738e-07
1.14654e-05
-1.42682e-07
1.15407e-05
-1.65344e-07
1.16129e-05
-1.78649e-07
1.16741e-05
-2.11967e-07
1.17559e-05
-2.61797e-07
1.18163e-05
-2.64863e-07
1.16616e-05
-1.60146e-07
-3.00736e-07
1.15284e-05
1.29966e-05
4.14839e-08
1.30373e-05
1.07682e-07
1.30723e-05
9.66318e-08
1.31532e-05
3.14731e-08
1.32385e-05
5.49895e-09
1.32885e-05
-1.85864e-08
1.33057e-05
-5.98501e-08
1.33183e-05
-1.04725e-07
1.335e-05
-1.4945e-07
1.34015e-05
-1.78258e-07
1.34463e-05
-1.87526e-07
1.34801e-05
-1.99124e-07
1.35086e-05
-2.07106e-07
1.3521e-05
-2.24373e-07
1.35095e-05
-2.50273e-07
1.34897e-05
-2.45133e-07
1.35197e-05
-1.90162e-07
-2.84061e-07
1.35031e-05
1.49936e-05
-2.38117e-07
1.50774e-05
2.38634e-08
1.5158e-05
1.60362e-08
1.52559e-05
-6.64471e-08
1.53316e-05
-7.01896e-08
1.53705e-05
-5.75354e-08
1.5379e-05
-6.82989e-08
1.53741e-05
-9.98469e-08
1.53554e-05
-1.30706e-07
1.53301e-05
-1.53039e-07
1.53063e-05
-1.63641e-07
1.52983e-05
-1.91161e-07
1.53154e-05
-2.24259e-07
1.53455e-05
-2.54443e-07
1.53808e-05
-2.85516e-07
1.54834e-05
-3.47798e-07
1.56963e-05
-4.03e-07
-2.15377e-07
1.56276e-05
1.76816e-05
6.85188e-08
1.76264e-05
7.90126e-08
1.76747e-05
-3.22389e-08
1.77437e-05
-1.3543e-07
1.78232e-05
-1.49697e-07
1.78672e-05
-1.01588e-07
1.78632e-05
-6.42587e-08
1.78343e-05
-7.09184e-08
1.78025e-05
-9.89461e-08
1.779e-05
-1.40538e-07
1.78128e-05
-1.86407e-07
1.78598e-05
-2.3814e-07
1.79213e-05
-2.85837e-07
1.79897e-05
-3.22804e-07
1.80558e-05
-3.51611e-07
1.80777e-05
-3.6974e-07
1.805e-05
-3.75257e-07
-3.9391e-07
1.82285e-05
1.73522e-05
-7.65673e-08
1.74819e-05
-5.07198e-08
1.75824e-05
-1.3274e-07
1.76641e-05
-2.17135e-07
1.77884e-05
-2.7396e-07
1.79539e-05
-2.67146e-07
1.80986e-05
-2.08947e-07
1.81859e-05
-1.5821e-07
1.82225e-05
-1.35506e-07
1.82222e-05
-1.40258e-07
1.82027e-05
-1.66954e-07
1.81687e-05
-2.04048e-07
1.81309e-05
-2.48056e-07
1.80986e-05
-2.905e-07
1.80703e-05
-3.2335e-07
1.80403e-05
-3.39733e-07
1.80125e-05
-3.47502e-07
-3.70485e-07
1.79891e-05
1.61227e-05
-9.00802e-08
1.61427e-05
-7.06495e-08
1.60804e-05
-7.05375e-08
1.60372e-05
-1.73855e-07
1.60584e-05
-2.95193e-07
1.61462e-05
-3.5497e-07
1.62548e-05
-3.17531e-07
1.63383e-05
-2.41703e-07
1.63831e-05
-1.80347e-07
1.64003e-05
-1.57374e-07
1.63993e-05
-1.66018e-07
1.6389e-05
-1.93689e-07
1.63719e-05
-2.3099e-07
1.63504e-05
-2.68963e-07
1.63198e-05
-2.92791e-07
1.62854e-05
-3.05293e-07
1.62441e-05
-3.06267e-07
-2.97484e-07
1.61711e-05
1.379e-05
8.8916e-08
1.40272e-05
-3.07906e-07
1.42615e-05
-3.04815e-07
1.43845e-05
-2.96875e-07
1.44188e-05
-3.29432e-07
1.4418e-05
-3.54165e-07
1.44322e-05
-3.31795e-07
1.44683e-05
-2.7778e-07
1.45242e-05
-2.36228e-07
1.45958e-05
-2.29029e-07
1.46714e-05
-2.41568e-07
1.4737e-05
-2.5927e-07
1.47775e-05
-2.71525e-07
1.47888e-05
-2.80261e-07
1.47768e-05
-2.80821e-07
1.47463e-05
-2.74784e-07
1.47046e-05
-2.6459e-07
-2.55753e-07
1.46629e-05
1.2712e-05
6.43811e-08
1.26408e-05
-2.36729e-07
1.27312e-05
-3.95165e-07
1.28551e-05
-4.20785e-07
1.29348e-05
-4.09092e-07
1.29549e-05
-3.74343e-07
1.29515e-05
-3.28326e-07
1.29485e-05
-2.74794e-07
1.29534e-05
-2.4116e-07
1.29643e-05
-2.39922e-07
1.29778e-05
-2.55099e-07
1.29916e-05
-2.73072e-07
1.3002e-05
-2.81853e-07
1.30063e-05
-2.84606e-07
1.30071e-05
-2.81651e-07
1.30065e-05
-2.7414e-07
1.30042e-05
-2.62309e-07
-2.53758e-07
1.30022e-05
1.11788e-05
6.34811e-08
1.12508e-05
-3.08751e-07
1.13145e-05
-4.58861e-07
1.13773e-05
-4.83584e-07
1.14294e-05
-4.61197e-07
1.14697e-05
-4.14644e-07
1.14985e-05
-3.57066e-07
1.15286e-05
-3.04884e-07
1.15665e-05
-2.79104e-07
1.16073e-05
-2.80691e-07
1.16467e-05
-2.94556e-07
1.16803e-05
-3.06656e-07
1.17012e-05
-3.02719e-07
1.17066e-05
-2.90001e-07
1.16973e-05
-2.72402e-07
1.16792e-05
-2.56055e-07
1.16579e-05
-2.40949e-07
-2.29991e-07
1.16341e-05
1.00746e-05
-1.31527e-07
1.02435e-05
-4.77601e-07
1.03953e-05
-6.10648e-07
1.05008e-05
-5.89114e-07
1.05554e-05
-5.15801e-07
1.05752e-05
-4.3447e-07
1.05909e-05
-3.72738e-07
1.06142e-05
-3.28245e-07
1.06415e-05
-3.06331e-07
1.06634e-05
-3.02637e-07
1.06766e-05
-3.07691e-07
1.06757e-05
-3.05786e-07
1.06581e-05
-2.85128e-07
1.06248e-05
-2.56738e-07
1.05796e-05
-2.27142e-07
1.0529e-05
-2.05489e-07
1.04791e-05
-1.91068e-07
-1.88296e-07
1.04374e-05
9.07945e-06
-3.49715e-07
9.18281e-06
-5.80971e-07
9.22826e-06
-6.56092e-07
9.25804e-06
-6.18892e-07
9.30242e-06
-5.60188e-07
9.36526e-06
-4.97305e-07
9.43175e-06
-4.39235e-07
9.47174e-06
-3.68227e-07
9.47498e-06
-3.09572e-07
9.44625e-06
-2.73909e-07
9.40197e-06
-2.63415e-07
9.36035e-06
-2.64164e-07
9.33525e-06
-2.60023e-07
9.33057e-06
-2.52065e-07
9.34331e-06
-2.39876e-07
9.36813e-06
-2.30318e-07
9.3987e-06
-2.21634e-07
-2.17697e-07
9.4281e-06
8.23262e-06
-4.91999e-07
8.39521e-06
-7.4356e-07
8.48865e-06
-7.49537e-07
8.51758e-06
-6.47819e-07
8.49873e-06
-5.4134e-07
8.48658e-06
-4.85157e-07
8.48584e-06
-4.38489e-07
8.49689e-06
-3.79284e-07
8.51856e-06
-3.31239e-07
8.54162e-06
-2.9697e-07
8.55619e-06
-2.77987e-07
8.55819e-06
-2.66157e-07
8.54912e-06
-2.50957e-07
8.53428e-06
-2.37229e-07
8.52054e-06
-2.26133e-07
8.51099e-06
-2.20769e-07
8.50583e-06
-2.16474e-07
-2.13315e-07
8.50145e-06
7.05676e-06
-4.76846e-07
7.27092e-06
-9.57727e-07
7.47882e-06
-9.57432e-07
7.59975e-06
-7.68751e-07
7.66759e-06
-6.09184e-07
7.69973e-06
-5.17293e-07
7.7129e-06
-4.51656e-07
7.72158e-06
-3.87967e-07
7.72856e-06
-3.38223e-07
7.73269e-06
-3.01098e-07
7.73154e-06
-2.76836e-07
7.72239e-06
-2.5701e-07
7.70748e-06
-2.36041e-07
7.68877e-06
-2.18517e-07
7.66967e-06
-2.07034e-07
7.65153e-06
-2.02633e-07
7.63438e-06
-1.99325e-07
-1.96403e-07
7.61747e-06
6.48103e-06
-7.05292e-07
6.77214e-06
-1.24884e-06
6.92287e-06
-1.10816e-06
6.97531e-06
-8.21184e-07
6.9895e-06
-6.23376e-07
6.9592e-06
-4.86997e-07
6.90643e-06
-3.98886e-07
6.8525e-06
-3.34037e-07
6.80309e-06
-2.88807e-07
6.75785e-06
-2.55867e-07
6.71443e-06
-2.33407e-07
6.6698e-06
-2.12386e-07
6.62674e-06
-1.92977e-07
6.58431e-06
-1.76086e-07
6.54349e-06
-1.66221e-07
6.50109e-06
-1.60227e-07
6.45696e-06
-1.55193e-07
-1.45982e-07
6.40653e-06
5.79937e-06
-9.45531e-07
5.99436e-06
-1.44383e-06
5.98051e-06
-1.09431e-06
5.89588e-06
-7.36556e-07
5.77444e-06
-5.01937e-07
5.63816e-06
-3.50715e-07
5.49809e-06
-2.58819e-07
5.36586e-06
-2.01801e-07
5.24527e-06
-1.68221e-07
5.13685e-06
-1.4744e-07
5.03694e-06
-1.33501e-07
4.9433e-06
-1.1875e-07
4.85525e-06
-1.04928e-07
4.77063e-06
-9.14618e-08
4.69106e-06
-8.66523e-08
4.6138e-06
-8.29686e-08
4.54316e-06
-8.45452e-08
-7.59191e-08
4.47309e-06
5.14718e-06
-1.04195e-06
4.84318e-06
-1.13983e-06
4.43176e-06
-6.82885e-07
4.0704e-06
-3.75197e-07
3.76853e-06
-2.00062e-07
3.52673e-06
-1.0892e-07
3.33253e-06
-6.46184e-08
3.17453e-06
-4.38036e-08
3.0416e-06
-3.52858e-08
2.92634e-06
-3.21849e-08
2.82424e-06
-3.13979e-08
2.73479e-06
-2.9298e-08
2.65654e-06
-2.66764e-08
2.58848e-06
-2.34066e-08
2.5257e-06
-2.38703e-08
2.46613e-06
-2.33953e-08
2.41161e-06
-3.00308e-08
-2.31782e-08
2.35887e-06
3.52345e-06
2.38362e-06
1.70073e-06
1.32554e-06
1.12547e-06
1.01655e-06
9.51936e-07
9.08133e-07
8.72847e-07
8.40662e-07
8.09264e-07
7.79966e-07
7.53289e-07
7.29883e-07
7.06013e-07
6.82617e-07
6.52587e-07
6.29408e-07
-1.22729e-07
1.22729e-07
-2.4839e-07
1.2566e-07
-3.73095e-07
1.24705e-07
-4.9743e-07
1.24336e-07
-6.20725e-07
1.23294e-07
-7.42358e-07
1.21634e-07
-8.61657e-07
1.19299e-07
-9.77865e-07
1.16208e-07
-1.09021e-06
1.12343e-07
-1.19788e-06
1.07671e-07
-1.30007e-06
1.0219e-07
-1.39582e-06
9.57484e-08
-1.48417e-06
8.8355e-08
-1.56418e-06
8.00125e-08
-1.63484e-06
7.06571e-08
-1.69514e-06
6.0303e-08
-1.74412e-06
4.89702e-08
-1.78092e-06
3.68019e-08
-1.80464e-06
2.37212e-08
-1.8147e-06
1.006e-08
-1.81003e-06
-4.66938e-09
-1.79015e-06
-1.98829e-08
-1.75489e-06
-3.5256e-08
-1.70425e-06
-5.06406e-08
-1.6385e-06
-6.5747e-08
-1.55808e-06
-8.04179e-08
-1.46373e-06
-9.43528e-08
-1.35619e-06
-1.07537e-07
-1.2365e-06
-1.19695e-07
-1.10582e-06
-1.3068e-07
-9.65443e-07
-1.40377e-07
-8.16727e-07
-1.48716e-07
-6.61116e-07
-1.55611e-07
-5.00065e-07
-1.6105e-07
-3.35013e-07
-1.65052e-07
-1.67374e-07
-1.67639e-07
1.56239e-09
-1.68937e-07
1.70536e-07
-1.68973e-07
3.38296e-07
-1.6776e-07
5.03768e-07
-1.65473e-07
6.65989e-07
-1.6222e-07
8.24101e-07
-1.58113e-07
9.77361e-07
-1.53259e-07
1.12513e-06
-1.47771e-07
1.26689e-06
-1.41762e-07
1.40223e-06
-1.3534e-07
1.53083e-06
-1.286e-07
1.65247e-06
-1.21633e-07
1.76699e-06
-1.14523e-07
1.87434e-06
-1.07351e-07
1.97452e-06
-1.00184e-07
2.0676e-06
-9.30785e-08
2.15369e-06
-8.60863e-08
2.23294e-06
-7.92573e-08
2.30558e-06
-7.26312e-08
2.37181e-06
-6.62344e-08
2.4319e-06
-6.00884e-08
2.48612e-06
-5.42167e-08
2.53475e-06
-4.86389e-08
2.57812e-06
-4.33621e-08
2.6165e-06
-3.83853e-08
2.65021e-06
-3.37106e-08
2.67955e-06
-2.93423e-08
2.70483e-06
-2.52776e-08
2.72634e-06
-2.15047e-08
2.74435e-06
-1.80103e-08
2.75914e-06
-1.47896e-08
2.77097e-06
-1.18314e-08
2.78009e-06
-9.12281e-09
2.78674e-06
-6.65095e-09
2.79114e-06
-4.40174e-09
2.79352e-06
-2.37451e-09
2.79408e-06
-5.59756e-10
2.79292e-06
1.1538e-09
2.79027e-06
2.65785e-09
2.78628e-06
3.98942e-09
2.78109e-06
5.18445e-09
2.77483e-06
6.26006e-09
2.76761e-06
7.22283e-09
2.75953e-06
8.08298e-09
2.75068e-06
8.84843e-09
2.74115e-06
9.52773e-09
2.73101e-06
1.0141e-08
2.72033e-06
1.06781e-08
2.70919e-06
1.11417e-08
2.69758e-06
1.16133e-08
2.68556e-06
1.20208e-08
2.6732e-06
1.23588e-08
2.66055e-06
1.26471e-08
2.64765e-06
1.29006e-08
2.63453e-06
1.31209e-08
2.62121e-06
1.33139e-08
2.60773e-06
1.34886e-08
2.59409e-06
1.3637e-08
2.58033e-06
1.37592e-08
2.56646e-06
1.38666e-08
2.5525e-06
1.39628e-08
2.53846e-06
1.40431e-08
2.52435e-06
1.41079e-08
2.51019e-06
1.41589e-08
2.49599e-06
1.41976e-08
2.48176e-06
1.4228e-08
2.46751e-06
1.42533e-08
2.45324e-06
1.42726e-08
2.43896e-06
1.42835e-08
2.42467e-06
1.42857e-08
2.41039e-06
1.42824e-08
2.39611e-06
1.42772e-08
2.38184e-06
1.42707e-08
2.36758e-06
1.42607e-08
2.35333e-06
1.42444e-08
2.33911e-06
1.42221e-08
2.32492e-06
1.41971e-08
2.31074e-06
1.41726e-08
2.29659e-06
1.41485e-08
2.28247e-06
1.41222e-08
2.26838e-06
1.40916e-08
2.25432e-06
1.40569e-08
2.2403e-06
1.40202e-08
2.22632e-06
1.39838e-08
2.21237e-06
1.39484e-08
2.19846e-06
1.39128e-08
2.18458e-06
1.38753e-08
2.17075e-06
1.38351e-08
2.15696e-06
1.3792e-08
2.14321e-06
1.37472e-08
2.12951e-06
1.37026e-08
2.11585e-06
1.36593e-08
2.10223e-06
1.36176e-08
2.08865e-06
1.35761e-08
2.07512e-06
1.35328e-08
2.06163e-06
1.34864e-08
2.0482e-06
1.34376e-08
2.03481e-06
1.33886e-08
2.02147e-06
1.33415e-08
2.00817e-06
1.32969e-08
1.99492e-06
1.32531e-08
1.98171e-06
1.32074e-08
1.96855e-06
1.3158e-08
1.95544e-06
1.31058e-08
1.94239e-06
1.30536e-08
1.92939e-06
1.30042e-08
1.91643e-06
1.29576e-08
1.90352e-06
1.29117e-08
1.89065e-06
1.28641e-08
1.87784e-06
1.28137e-08
1.86508e-06
1.27614e-08
1.85237e-06
1.27095e-08
1.83971e-06
1.26605e-08
1.82709e-06
1.26152e-08
1.81452e-06
1.25724e-08
1.80199e-06
1.25306e-08
1.7895e-06
1.24892e-08
1.77705e-06
1.24492e-08
1.76464e-06
1.2412e-08
1.75226e-06
1.23798e-08
1.73991e-06
1.2354e-08
1.72757e-06
1.23379e-08
1.71524e-06
1.23328e-08
1.70289e-06
1.23408e-08
1.69053e-06
1.23695e-08
1.67812e-06
1.24073e-08
1.66561e-06
1.25031e-08
1.65306e-06
1.25573e-08
1.64022e-06
1.28421e-08
1.62745e-06
1.27692e-08
1.61376e-06
1.36898e-08
1.60091e-06
1.28419e-08
1.58516e-06
1.57576e-08
1.57283e-06
1.23264e-08
1.55278e-06
2.00496e-08
1.54141e-06
1.13662e-08
1.51452e-06
2.68909e-08
1.50229e-06
1.22373e-08
1.46579e-06
3.64924e-08
1.44829e-06
1.75066e-08
1.39132e-06
5.69701e-08
1.36594e-06
2.53733e-08
1.25036e-06
1.15586e-07
3.9068e-08
1.21129e-06
-1.23382e-07
2.46112e-07
-2.51797e-07
2.54075e-07
-3.78981e-07
2.51889e-07
-5.0589e-07
2.51245e-07
-6.31875e-07
2.49279e-07
-7.56316e-07
2.46074e-07
-8.78489e-07
2.41472e-07
-9.97662e-07
2.35382e-07
-1.11305e-06
2.27733e-07
-1.22371e-06
2.18326e-07
-1.32866e-06
2.07143e-07
-1.4269e-06
1.93987e-07
-1.51736e-06
1.78814e-07
-1.59894e-06
1.61591e-07
-1.67052e-06
1.42242e-07
-1.73096e-06
1.20743e-07
-1.77914e-06
9.71529e-08
-1.81411e-06
7.17735e-08
-1.83495e-06
4.45565e-08
-1.84083e-06
1.59383e-08
-1.83069e-06
-1.4803e-08
-1.80413e-06
-4.64433e-08
-1.76088e-06
-7.85093e-08
-1.70093e-06
-1.1059e-07
-1.62456e-06
-1.42122e-07
-1.53217e-06
-1.72808e-07
-1.42447e-06
-2.02052e-07
-1.30235e-06
-2.29656e-07
-1.16694e-06
-2.55103e-07
-1.01934e-06
-2.78277e-07
-8.60924e-07
-2.98796e-07
-6.93079e-07
-3.16561e-07
-5.17213e-07
-3.31477e-07
-3.34757e-07
-3.43506e-07
-1.47124e-07
-3.52685e-07
4.43018e-08
-3.59065e-07
2.38188e-07
-3.62822e-07
4.3332e-07
-3.64106e-07
6.28631e-07
-3.63071e-07
8.23083e-07
-3.59925e-07
1.01575e-06
-3.54884e-07
1.2058e-06
-3.48166e-07
1.39253e-06
-3.39987e-07
1.57532e-06
-3.30558e-07
1.75364e-06
-3.20087e-07
1.92707e-06
-3.08767e-07
2.09524e-06
-2.96775e-07
2.25789e-06
-2.84279e-07
2.4148e-06
-2.71428e-07
2.56581e-06
-2.58362e-07
2.71082e-06
-2.45201e-07
2.84979e-06
-2.32046e-07
2.9827e-06
-2.18992e-07
3.10956e-06
-2.0612e-07
3.23043e-06
-1.93501e-07
3.34539e-06
-1.81191e-07
3.45453e-06
-1.69232e-07
3.55798e-06
-1.57664e-07
3.65586e-06
-1.46522e-07
3.74833e-06
-1.35827e-07
3.83553e-06
-1.25594e-07
3.91765e-06
-1.15831e-07
3.99485e-06
-1.06542e-07
4.06731e-06
-9.77334e-08
4.13521e-06
-8.94003e-08
4.19873e-06
-8.15317e-08
4.25806e-06
-7.41199e-08
4.31338e-06
-6.71505e-08
4.36486e-06
-6.06105e-08
4.4127e-06
-5.44898e-08
4.45706e-06
-4.87599e-08
4.4981e-06
-4.34128e-08
4.53597e-06
-3.84318e-08
4.57091e-06
-3.37815e-08
4.60302e-06
-2.94528e-08
4.63244e-06
-2.54337e-08
4.65933e-06
-2.17034e-08
4.68382e-06
-1.82318e-08
4.70605e-06
-1.50099e-08
4.72615e-06
-1.20169e-08
4.74424e-06
-9.23967e-09
4.76044e-06
-6.66762e-09
4.77485e-06
-4.27259e-09
4.7876e-06
-2.07252e-09
4.79883e-06
-8.24449e-11
4.80847e-06
1.97031e-09
4.81672e-06
3.76433e-09
4.82367e-06
5.41116e-09
4.82938e-06
6.94283e-09
4.83391e-06
8.36588e-09
4.83735e-06
9.68162e-09
4.83976e-06
1.09006e-08
4.84121e-06
1.20409e-08
4.84175e-06
1.30982e-08
4.84143e-06
1.4078e-08
4.8403e-06
1.49934e-08
4.83842e-06
1.58521e-08
4.83581e-06
1.66461e-08
4.83254e-06
1.73829e-08
4.82863e-06
1.80686e-08
4.82412e-06
1.87058e-08
4.81905e-06
1.93002e-08
4.81344e-06
1.98573e-08
4.80734e-06
2.03787e-08
4.80076e-06
2.08643e-08
4.79373e-06
2.13158e-08
4.78627e-06
2.17371e-08
4.77842e-06
2.21333e-08
4.77018e-06
2.25069e-08
4.76158e-06
2.28577e-08
4.75264e-06
2.31843e-08
4.74338e-06
2.34877e-08
4.7338e-06
2.3772e-08
4.72393e-06
2.40414e-08
4.71378e-06
2.42971e-08
4.70337e-06
2.45374e-08
4.6927e-06
2.47616e-08
4.68179e-06
2.49709e-08
4.67064e-06
2.51681e-08
4.65926e-06
2.53564e-08
4.64768e-06
2.55369e-08
4.63588e-06
2.57081e-08
4.62389e-06
2.58691e-08
4.6117e-06
2.60198e-08
4.59933e-06
2.61614e-08
4.58678e-06
2.62959e-08
4.57406e-06
2.64254e-08
4.56117e-06
2.65513e-08
4.54811e-06
2.66735e-08
4.5349e-06
2.67912e-08
4.52153e-06
2.69027e-08
4.50801e-06
2.70074e-08
4.49434e-06
2.71064e-08
4.48052e-06
2.72025e-08
4.46657e-06
2.72981e-08
4.45247e-06
2.73935e-08
4.43824e-06
2.74876e-08
4.42387e-06
2.75773e-08
4.40936e-06
2.76606e-08
4.39473e-06
2.77387e-08
4.37997e-06
2.78154e-08
4.36508e-06
2.78943e-08
4.35006e-06
2.79753e-08
4.33492e-06
2.8056e-08
4.31965e-06
2.81333e-08
4.30426e-06
2.82063e-08
4.28874e-06
2.82764e-08
4.2731e-06
2.83467e-08
4.25734e-06
2.84212e-08
4.24146e-06
2.85011e-08
4.22545e-06
2.85843e-08
4.20931e-06
2.86694e-08
4.19304e-06
2.87562e-08
4.17664e-06
2.88466e-08
4.16011e-06
2.89436e-08
4.14344e-06
2.90512e-08
4.12662e-06
2.91721e-08
4.10965e-06
2.93123e-08
4.0925e-06
2.94747e-08
4.07518e-06
2.96673e-08
4.05765e-06
2.98954e-08
4.03989e-06
3.01715e-08
4.02189e-06
3.05028e-08
4.00353e-06
3.09157e-08
3.98493e-06
3.14468e-08
3.9657e-06
3.19968e-08
3.94622e-06
3.31705e-08
3.92585e-06
3.32113e-08
3.90447e-06
3.71307e-08
3.88359e-06
3.32103e-08
3.85682e-06
4.68222e-08
3.83837e-06
2.98179e-08
3.79921e-06
6.6049e-08
3.78569e-06
2.57586e-08
3.72861e-06
9.35676e-08
3.71288e-06
3.32426e-08
3.63552e-06
1.3433e-07
3.5996e-06
6.12885e-08
3.48614e-06
2.29048e-07
1.60575e-07
3.36463e-06
-1.24566e-07
3.70678e-07
-2.57814e-07
3.87323e-07
-3.89863e-07
3.83938e-07
-5.21867e-07
3.83248e-07
-6.53172e-07
3.80585e-07
-7.83202e-07
3.76104e-07
-9.11299e-07
3.69569e-07
-1.03668e-06
3.60765e-07
-1.15849e-06
3.49538e-07
-1.27582e-06
3.35662e-07
-1.38765e-06
3.18971e-07
-1.49288e-06
2.99215e-07
-1.59037e-06
2.76306e-07
-1.67882e-06
2.50035e-07
-1.75702e-06
2.20441e-07
-1.82377e-06
1.87498e-07
-1.87774e-06
1.51126e-07
-1.91774e-06
1.11772e-07
-1.94276e-06
6.95715e-08
-1.95205e-06
2.52307e-08
-1.94409e-06
-2.27586e-08
-1.91819e-06
-7.23436e-08
-1.87426e-06
-1.2244e-07
-1.81237e-06
-1.72484e-07
-1.73276e-06
-2.21726e-07
-1.63595e-06
-2.69624e-07
-1.52281e-06
-3.1519e-07
-1.39453e-06
-3.57937e-07
-1.25222e-06
-3.97417e-07
-1.09749e-06
-4.32998e-07
-9.31823e-07
-4.64467e-07
-7.56814e-07
-4.9157e-07
-5.74055e-07
-5.14236e-07
-3.85076e-07
-5.32485e-07
-1.91391e-07
-5.4637e-07
5.53291e-09
-5.55989e-07
2.04381e-07
-5.6167e-07
4.03931e-07
-5.63656e-07
6.03089e-07
-5.6223e-07
8.00872e-07
-5.57708e-07
9.96413e-07
-5.50425e-07
1.18896e-06
-5.40715e-07
1.37788e-06
-5.28906e-07
1.56264e-06
-5.15317e-07
1.74281e-06
-5.00255e-07
1.91804e-06
-4.84001e-07
2.08808e-06
-4.66812e-07
2.25272e-06
-4.48921e-07
2.41184e-06
-4.30543e-07
2.56534e-06
-4.11866e-07
2.71319e-06
-3.93053e-07
2.85539e-06
-3.74247e-07
2.99197e-06
-3.55573e-07
3.12299e-06
-3.37137e-07
3.24851e-06
-3.19025e-07
3.36864e-06
-3.01312e-07
3.48346e-06
-2.8406e-07
3.59312e-06
-2.67321e-07
3.69773e-06
-2.51131e-07
3.79742e-06
-2.35518e-07
3.89233e-06
-2.20502e-07
3.98259e-06
-2.06099e-07
4.06837e-06
-1.92318e-07
4.1498e-06
-1.79159e-07
4.22702e-06
-1.66621e-07
4.30018e-06
-1.54695e-07
4.36943e-06
-1.4337e-07
4.43491e-06
-1.32634e-07
4.49677e-06
-1.2247e-07
4.55515e-06
-1.12862e-07
4.61018e-06
-1.03791e-07
4.66199e-06
-9.52305e-08
4.71074e-06
-8.71752e-08
4.75655e-06
-7.95968e-08
4.79956e-06
-7.24603e-08
4.83988e-06
-6.57502e-08
4.87762e-06
-5.94479e-08
4.91292e-06
-5.35285e-08
4.94588e-06
-4.79716e-08
4.97662e-06
-4.27572e-08
5.00525e-06
-3.78681e-08
5.03187e-06
-3.32915e-08
5.05659e-06
-2.89907e-08
5.07948e-06
-2.49565e-08
5.10058e-06
-2.11842e-08
5.12014e-06
-1.75895e-08
5.13813e-06
-1.42271e-08
5.15464e-06
-1.11017e-08
5.16976e-06
-8.18031e-09
5.18357e-06
-5.44108e-09
5.19613e-06
-2.87267e-09
5.20751e-06
-4.79404e-10
5.21776e-06
1.78645e-09
5.22697e-06
3.89074e-09
5.23517e-06
5.87165e-09
5.24243e-06
7.73582e-09
5.24879e-06
9.49697e-09
5.2543e-06
1.11355e-08
5.25901e-06
1.26696e-08
5.26297e-06
1.41071e-08
5.26622e-06
1.54547e-08
5.2688e-06
1.67212e-08
5.27075e-06
1.79132e-08
5.27209e-06
1.90342e-08
5.27287e-06
2.00872e-08
5.27311e-06
2.10756e-08
5.27284e-06
2.20039e-08
5.2721e-06
2.28772e-08
5.2709e-06
2.37005e-08
5.26928e-06
2.44775e-08
5.26726e-06
2.52096e-08
5.26485e-06
2.58985e-08
5.26207e-06
2.65471e-08
5.25896e-06
2.71587e-08
5.25552e-06
2.77366e-08
5.25177e-06
2.82827e-08
5.24773e-06
2.87995e-08
5.24341e-06
2.92889e-08
5.23883e-06
2.97532e-08
5.23399e-06
3.01943e-08
5.22892e-06
3.06129e-08
5.22361e-06
3.10098e-08
5.2181e-06
3.13865e-08
5.21237e-06
3.17451e-08
5.20644e-06
3.20878e-08
5.20032e-06
3.24161e-08
5.19402e-06
3.27314e-08
5.18754e-06
3.30341e-08
5.18088e-06
3.33252e-08
5.17407e-06
3.3605e-08
5.1671e-06
3.38738e-08
5.15997e-06
3.41324e-08
5.1527e-06
3.4382e-08
5.14528e-06
3.46247e-08
5.13771e-06
3.48625e-08
5.13001e-06
3.50957e-08
5.12217e-06
3.53238e-08
5.11421e-06
3.55452e-08
5.10611e-06
3.57591e-08
5.09788e-06
3.59666e-08
5.08952e-06
3.61713e-08
5.08104e-06
3.63763e-08
5.07243e-06
3.65816e-08
5.06371e-06
3.6785e-08
5.05485e-06
3.69845e-08
5.04588e-06
3.71796e-08
5.03679e-06
3.73726e-08
5.02756e-06
3.7567e-08
5.01822e-06
3.77663e-08
5.00875e-06
3.79713e-08
4.99915e-06
3.81806e-08
4.98943e-06
3.83931e-08
4.97958e-06
3.86105e-08
4.96959e-06
3.88353e-08
4.95946e-06
3.90718e-08
4.94919e-06
3.93244e-08
4.93876e-06
3.9598e-08
4.92817e-06
3.98974e-08
4.91741e-06
4.02344e-08
4.90648e-06
4.06056e-08
4.89532e-06
4.10508e-08
4.88397e-06
4.15253e-08
4.8723e-06
4.21672e-08
4.86045e-06
4.2765e-08
4.84806e-06
4.38369e-08
4.83565e-06
4.44103e-08
4.82207e-06
4.67523e-08
4.80915e-06
4.61305e-08
4.7933e-06
5.29831e-08
4.78037e-06
4.61356e-08
4.75988e-06
6.73162e-08
4.74814e-06
4.15509e-08
4.7195e-06
9.46926e-08
4.7083e-06
3.69574e-08
4.67129e-06
1.30578e-07
4.64937e-06
5.51599e-08
4.61018e-06
1.73525e-07
4.55405e-06
1.17415e-07
4.5117e-06
2.71404e-07
2.67445e-07
4.40483e-06
-1.26098e-07
4.96776e-07
-2.66392e-07
5.27618e-07
-4.05575e-07
5.23121e-07
-5.4497e-07
5.22643e-07
-6.83966e-07
5.19581e-07
-8.22023e-07
5.1416e-07
-9.5851e-07
5.06056e-07
-1.09275e-06
4.95009e-07
-1.22385e-06
4.80636e-07
-1.35087e-06
4.62677e-07
-1.47268e-06
4.40786e-07
-1.58804e-06
4.14569e-07
-1.69561e-06
3.83884e-07
-1.79399e-06
3.48412e-07
-1.8816e-06
3.08052e-07
-1.95698e-06
2.62874e-07
-2.01861e-06
2.12761e-07
-2.06502e-06
1.58176e-07
-2.0949e-06
9.94578e-08
-2.10701e-06
3.73385e-08
-2.10012e-06
-2.96455e-08
-2.07314e-06
-9.93296e-08
-2.02583e-06
-1.69751e-07
-1.95823e-06
-2.40078e-07
-1.87065e-06
-3.09312e-07
-1.76413e-06
-3.76146e-07
-1.63955e-06
-4.3977e-07
-1.49846e-06
-4.99025e-07
-1.34264e-06
-5.53235e-07
-1.17385e-06
-6.01784e-07
-9.93987e-07
-6.44333e-07
-8.04935e-07
-6.80622e-07
-6.08607e-07
-7.10564e-07
-4.06811e-07
-7.34281e-07
-2.01258e-07
-7.51923e-07
6.58755e-09
-7.63835e-07
2.15183e-07
-7.70266e-07
4.23348e-07
-7.71821e-07
6.2996e-07
-7.68841e-07
8.34041e-07
-7.61789e-07
1.03476e-06
-7.51148e-07
1.23144e-06
-7.37396e-07
1.42353e-06
-7.20988e-07
1.61056e-06
-7.02354e-07
1.79221e-06
-6.81899e-07
1.9682e-06
-6.59993e-07
2.13836e-06
-6.36977e-07
2.3026e-06
-6.13155e-07
2.46085e-06
-5.88795e-07
2.61311e-06
-5.64129e-07
2.75942e-06
-5.39355e-07
2.89982e-06
-5.1465e-07
3.03441e-06
-4.90167e-07
3.16331e-06
-4.6603e-07
3.28662e-06
-4.42339e-07
3.40449e-06
-4.1918e-07
3.51705e-06
-3.96626e-07
3.62447e-06
-3.74734e-07
3.72688e-06
-3.53542e-07
3.82444e-06
-3.33081e-07
3.91732e-06
-3.13376e-07
4.00566e-06
-2.94444e-07
4.08963e-06
-2.76289e-07
4.16938e-06
-2.58908e-07
4.24506e-06
-2.42299e-07
4.31682e-06
-2.26455e-07
4.38481e-06
-2.11363e-07
4.44918e-06
-1.97003e-07
4.51007e-06
-1.83356e-07
4.56761e-06
-1.70404e-07
4.62194e-06
-1.58126e-07
4.67321e-06
-1.46496e-07
4.72153e-06
-1.35493e-07
4.76702e-06
-1.2509e-07
4.80981e-06
-1.15254e-07
4.85003e-06
-1.05964e-07
4.88777e-06
-9.71919e-08
4.92316e-06
-8.89179e-08
4.9563e-06
-8.11143e-08
4.98731e-06
-7.37616e-08
5.01627e-06
-6.68327e-08
5.04328e-06
-6.03007e-08
5.06844e-06
-5.4146e-08
5.09182e-06
-4.8341e-08
5.11352e-06
-4.28825e-08
5.13367e-06
-3.77368e-08
5.15232e-06
-3.28811e-08
5.16954e-06
-2.83187e-08
5.18539e-06
-2.40325e-08
5.19995e-06
-2.00027e-08
5.21329e-06
-1.62145e-08
5.22546e-06
-1.2649e-08
5.23654e-06
-9.29371e-09
5.24657e-06
-6.13988e-09
5.25561e-06
-3.16714e-09
5.26375e-06
-4.00296e-10
5.27098e-06
2.2615e-09
5.27739e-06
4.7317e-09
5.283e-06
7.05861e-09
5.28786e-06
9.24372e-09
5.29202e-06
1.12965e-08
5.29551e-06
1.32293e-08
5.29837e-06
1.50508e-08
5.30064e-06
1.67659e-08
5.30235e-06
1.83803e-08
5.30353e-06
1.98993e-08
5.3042e-06
2.13282e-08
5.30441e-06
2.26728e-08
5.30417e-06
2.39408e-08
5.3035e-06
2.51386e-08
5.30244e-06
2.627e-08
5.30101e-06
2.73369e-08
5.29921e-06
2.83416e-08
5.29708e-06
2.9287e-08
5.29464e-06
3.01783e-08
5.2919e-06
3.10217e-08
5.28888e-06
3.1822e-08
5.28559e-06
3.25819e-08
5.28204e-06
3.33024e-08
5.27825e-06