/*--------------------------------*- C++ -*----------------------------------*\
| =========                 |                                                 |
| \\      /  F ield         | OpenFOAM: The Open Source CFD Toolbox           |
|  \\    /   O peration     | Version:  2.1.x                                 |
|   \\  /    A nd           | Web:      www.OpenFOAM.org                      |
|    \\/     M anipulation  |                                                 |
\*---------------------------------------------------------------------------*/
FoamFile
{
    version     2.0;
    format      ascii;
    class       volScalarField;
    location    "0.005";
    object      pMean;
}
// * * * * * * * * * * * * * * * * * * * * * * * * * * * * * * * * * * * * * //

dimensions      [0 2 -2 0 0 0 0];

internalField   nonuniform List<scalar> 
12225
(
205.846
189.047
182.13
179.811
178.26
176.711
174.972
173.166
171.193
169.222
167.049
164.834
162.247
159.471
156.144
151.642
146.522
134.855
202.778
188.794
182.225
179.875
178.293
176.712
174.956
173.15
171.181
169.206
167.059
164.805
162.287
159.46
156.156
152.056
146.639
140.272
200.865
189.04
182.775
180.169
178.453
176.814
175.019
173.179
171.214
169.218
167.107
164.817
162.374
159.514
156.415
152.557
148.238
143.449
199.173
189.212
183.353
180.522
178.688
177.002
175.176
173.298
171.329
169.329
167.239
164.988
162.586
159.895
156.948
153.605
150.022
146.331
197.542
189.258
183.902
180.912
178.966
177.219
175.397
173.479
171.525
169.531
167.483
165.302
162.989
160.48
157.784
154.891
151.929
149.149
196.054
189.174
184.376
181.33
179.266
177.468
175.656
173.744
171.797
169.811
167.799
165.691
163.495
161.159
158.729
156.233
153.793
151.584
194.648
188.949
184.731
181.748
179.559
177.706
175.888
174.005
172.078
170.129
168.164
166.15
164.078
161.938
159.775
157.636
155.619
153.827
193.735
188.703
184.947
182.085
179.841
177.931
176.111
174.247
172.349
170.436
168.515
166.585
164.636
162.666
160.708
158.821
157.075
155.556
193.065
188.478
185.086
182.368
180.109
178.152
176.317
174.48
172.62
170.749
168.882
167.026
165.183
163.355
161.568
159.875
158.333
157.02
192.394
188.223
185.176
182.627
180.401
178.405
176.55
174.738
172.923
171.11
169.313
167.547
165.82
164.138
162.522
161.018
159.67
158.52
191.893
187.992
185.237
182.881
180.722
178.721
176.852
175.054
173.288
171.549
169.844
168.179
166.571
165.034
163.581
162.246
161.063
160.057
191.443
187.762
185.265
183.104
181.041
179.076
177.211
175.434
173.721
172.058
170.45
168.899
167.414
166.013
164.711
163.528
162.491
161.617
190.988
187.564
185.287
183.307
181.362
179.461
177.632
175.887
174.225
172.643
171.141
169.712
168.355
167.086
165.92
164.872
163.961
163.196
190.894
187.519
185.349
183.515
181.704
179.893
178.121
176.425
174.824
173.324
171.921
170.609
169.379
168.237
167.193
166.262
165.458
164.792
190.865
187.515
185.448
183.747
182.067
180.363
178.672
177.044
175.516
174.098
172.79
171.584
170.471
169.446
168.515
167.685
166.968
166.377
190.839
187.637
185.669
184.069
182.49
180.877
179.268
177.721
176.275
174.944
173.726
172.615
171.603
170.684
169.854
169.113
168.472
167.944
191.1
187.914
186.003
184.461
182.949
181.413
179.887
178.425
177.064
175.819
174.687
173.659
172.731
171.899
171.154
170.487
169.908
169.43
191.291
188.239
186.425
184.936
183.457
181.961
180.485
179.08
177.786
176.618
175.565
174.612
173.751
172.983
172.299
171.693
171.164
170.724
192.132
188.906
186.961
185.409
183.914
182.431
180.985
179.615
178.362
177.244
176.249
175.354
174.545
173.821
173.176
172.605
172.106
171.688
192.718
189.43
187.446
185.836
184.287
182.772
181.325
179.979
178.761
177.681
176.729
175.877
175.107
174.412
173.791
173.241
172.763
172.363
193.322
190.001
187.928
186.218
184.571
182.989
181.521
180.194
179.015
177.977
177.061
176.24
175.496
174.82
174.215
173.682
173.222
172.839
194.04
190.607
188.391
186.513
184.73
183.078
181.599
180.303
179.172
178.175
177.286
176.485
175.755
175.093
174.502
173.984
173.54
173.17
194.84
191.278
188.802
186.671
184.743
183.046
181.584
180.334
179.248
178.284
177.416
176.627
175.908
175.259
174.683
174.18
173.75
173.394
196.097
192.046
189.129
186.699
184.641
182.931
181.519
180.325
179.278
178.336
177.481
176.702
175.993
175.355
174.791
174.3
173.88
173.533
197.454
192.803
189.332
186.577
184.419
182.744
181.409
180.272
179.257
178.335
177.493
176.725
176.029
175.404
174.849
174.364
173.949
173.607
198.86
193.486
189.365
186.302
184.095
182.504
181.252
180.169
179.187
178.288
177.464
176.713
176.031
175.415
174.866
174.381
173.965
173.625
200.648
194.116
189.23
185.911
183.74
182.246
181.065
180.032
179.089
178.219
177.418
176.685
176.017
175.41
174.862
174.373
173.949
173.603
202.7
194.58
188.868
185.419
183.383
181.996
180.876
179.887
178.983
178.145
177.369
176.653
175.997
175.396
174.85
174.356
173.921
173.557
204.854
194.886
188.265
184.815
182.984
181.759
180.744
179.817
178.945
178.125
177.359
176.649
175.997
175.399
174.852
174.353
173.902
173.498
208.311
195.724
188.314
184.731
182.869
181.671
180.699
179.806
178.954
178.143
177.381
176.674
176.021
175.424
174.877
174.381
173.934
173.54
161.82
161.833
161.858
161.896
161.948
162.013
162.092
162.185
162.292
162.414
162.551
162.702
162.868
163.048
163.242
163.449
163.669
163.899
164.14
164.388
164.643
164.903
165.164
165.424
165.681
165.932
166.174
166.405
166.622
166.822
167.003
167.164
167.302
167.417
167.507
167.572
167.61
167.622
167.607
167.567
167.501
167.41
167.294
167.155
166.993
166.809
166.605
166.381
166.138
165.877
165.6
165.307
165
164.678
164.343
163.995
163.637
163.267
162.887
162.497
162.098
161.69
161.274
160.851
160.42
159.983
159.538
159.088
158.631
158.169
157.701
157.227
156.749
156.265
155.776
155.283
154.785
154.283
153.775
153.264
152.748
152.228
151.704
151.175
150.642
150.105
149.563
149.017
148.467
147.913
147.355
146.792
146.225
145.654
145.078
144.498
143.914
143.325
142.731
142.133
141.531
140.924
140.312
139.696
139.075
138.449
137.819
137.184
136.543
135.898
135.248
134.593
133.933
133.268
132.597
131.922
131.241
130.555
129.863
129.167
128.465
127.757
127.044
126.325
125.601
124.871
124.135
123.393
122.646
121.893
121.134
120.369
119.598
118.821
118.038
117.248
116.453
115.651
114.843
114.028
113.208
112.38
111.546
110.706
109.859
109.005
108.145
107.278
106.404
105.523
104.635
103.74
102.839
101.93
101.014
100.091
99.161
98.2237
97.2793
96.3277
95.3689
94.4031
93.4303
92.4507
91.4643
90.4715
89.4724
88.468
87.4579
86.445
85.4265
84.411
83.3894
82.3826
81.3693
80.3937
79.4155
78.5249
77.6603
76.9896
161.717
161.73
161.756
161.795
161.847
161.913
161.994
162.089
162.198
162.322
162.462
162.616
162.785
162.969
163.167
163.378
163.602
163.837
164.083
164.336
164.597
164.861
165.128
165.393
165.656
165.912
166.159
166.394
166.614
166.818
167.002
167.166
167.306
167.423
167.514
167.58
167.618
167.631
167.616
167.576
167.509
167.417
167.301
167.161
166.998
166.813
166.608
166.383
166.139
165.878
165.6
165.306
164.997
164.675
164.339
163.991
163.632
163.261
162.881
162.491
162.091
161.683
161.267
160.844
160.413
159.975
159.531
159.08
158.624
158.161
157.693
157.22
156.742
156.258
155.77
155.277
154.779
154.277
153.77
153.258
152.743
152.223
151.698
151.17
150.637
150.1
149.558
149.013
148.463
147.909
147.351
146.788
146.221
145.65
145.074
144.494
143.91
143.321
142.728
142.13
141.528
140.921
140.309
139.693
139.072
138.446
137.816
137.181
136.541
135.895
135.245
134.59
133.93
133.265
132.595
131.919
131.239
130.552
129.861
129.164
128.462
127.755
127.042
126.323
125.599
124.869
124.133
123.391
122.644
121.891
121.132
120.367
119.596
118.819
118.036
117.247
116.451
115.649
114.841
114.027
113.206
112.379
111.545
110.704
109.857
109.004
108.143
107.276
106.402
105.521
104.634
103.739
102.837
101.929
101.013
100.09
99.1597
98.2224
97.278
96.3264
95.3677
94.4018
93.429
92.4493
91.4628
90.47
89.4708
88.4663
87.4558
86.4428
85.4238
84.4079
83.3856
82.3768
81.364
80.3807
79.406
78.4866
77.6076
76.78
161.509
161.523
161.549
161.589
161.643
161.712
161.795
161.893
162.006
162.135
162.28
162.439
162.615
162.805
163.011
163.23
163.462
163.707
163.962
164.225
164.496
164.771
165.047
165.323
165.596
165.861
166.117
166.361
166.589
166.799
166.989
167.158
167.302
167.422
167.516
167.583
167.623
167.636
167.621
167.58
167.513
167.42
167.303
167.162
166.998
166.812
166.605
166.379
166.134
165.871
165.592
165.297
164.988
164.665
164.328
163.98
163.62
163.249
162.869
162.478
162.079
161.671
161.255
160.831
160.401
159.963
159.519
159.069
158.612
158.15
157.683
157.21
156.731
156.248
155.76
155.267
154.77
154.268
153.761
153.25
152.735
152.215
151.691
151.163
150.63
150.093
149.552
149.007
148.457
147.903
147.345
146.783
146.216
145.645
145.07
144.49
143.905
143.317
142.724
142.126
141.524
140.917
140.305
139.689
139.068
138.443
137.813
137.177
136.537
135.892
135.242
134.587
133.927
133.262
132.592
131.916
131.236
130.55
129.858
129.162
128.46
127.752
127.039
126.32
125.596
124.866
124.13
123.389
122.642
121.889
121.13
120.365
119.594
118.817
118.034
117.244
116.449
115.647
114.839
114.025
113.204
112.377
111.543
110.702
109.856
109.002
108.142
107.274
106.4
105.52
104.632
103.737
102.835
101.927
101.011
100.088
99.1578
98.2205
97.2761
96.3245
95.3657
94.3998
93.4269
92.4471
91.4605
90.4674
89.468
88.4632
87.4523
86.4385
85.419
84.4013
83.3788
82.3652
81.3526
80.3568
79.3799
78.4241
77.5147
76.591
161.191
161.205
161.232
161.274
161.331
161.402
161.489
161.592
161.711
161.846
161.998
162.166
162.351
162.551
162.768
162.999
163.244
163.502
163.772
164.051
164.337
164.628
164.92
165.212
165.5
165.78
166.05
166.307
166.546
166.767
166.967
167.143
167.294
167.419
167.517
167.587
167.629
167.643
167.629
167.588
167.52
167.426
167.308
167.165
166.999
166.812
166.604
166.376
166.13
165.866
165.586
165.29
164.979
164.655
164.318
163.969
163.608
163.237
162.856
162.466
162.066
161.658
161.242
160.819
160.388
159.951
159.507
159.056
158.6
158.139
157.671
157.198
156.721
156.238
155.75
155.258
154.76
154.259
153.752
153.242
152.727
152.207
151.683
151.155
150.623
150.086
149.546
149
148.451
147.897
147.34
146.777
146.211
145.64
145.065
144.485
143.901
143.312
142.719
142.122
141.52
140.913
140.302
139.686
139.065
138.439
137.809
137.174
136.534
135.889
135.239
134.584
133.924
133.259
132.589
131.914
131.233
130.547
129.856
129.159
128.457
127.75
127.037
126.318
125.594
124.864
124.128
123.387
122.64
121.887
121.128
120.363
119.592
118.815
118.032
117.243
116.447
115.645
114.837
114.023
113.202
112.375
111.541
110.701
109.854
109
108.14
107.273
106.399
105.518
104.63
103.736
102.834
101.925
101.009
100.086
99.1562
98.2189
97.2744
96.3227
95.3639
94.3979
93.4249
92.4449
91.4581
90.4647
89.465
88.4596
87.4483
86.4332
85.4134
84.3927
83.3699
82.3502
81.336
80.3278
79.34
78.3554
77.4045
76.4125
160.754
160.77
160.798
160.842
160.901
160.976
161.068
161.177
161.302
161.446
161.606
161.785
161.981
162.195
162.426
162.673
162.935
163.212
163.501
163.801
164.109
164.422
164.737
165.052
165.361
165.663
165.953
166.227
166.484
166.72
166.932
167.119
167.28
167.412
167.516
167.59
167.635
167.651
167.638
167.597
167.529
167.434
167.314
167.17
167.003
166.814
166.604
166.374
166.126
165.861
165.579
165.282
164.97
164.645
164.307
163.957
163.596
163.224
162.843
162.452
162.052
161.644
161.228
160.805
160.374
159.937
159.493
159.043
158.587
158.126
157.659
157.186
156.709
156.226
155.739
155.247
154.75
154.249
153.743
153.232
152.718
152.198
151.675
151.147
150.615
150.079
149.538
148.994
148.444
147.891
147.333
146.771
146.205
145.634
145.059
144.48
143.896
143.308
142.715
142.117
141.515
140.909
140.298
139.682
139.061
138.436
137.806
137.171
136.531
135.886
135.236
134.581
133.921
133.256
132.586
131.911
131.23
130.545
129.853
129.157
128.455
127.747
127.034
126.316
125.592
124.862
124.126
123.385
122.638
121.885
121.126
120.361
119.59
118.813
118.03
117.241
116.445
115.644
114.836
114.021
113.2
112.373
111.539
110.699
109.852
108.999
108.138
107.271
106.397
105.516
104.629
103.734
102.832
101.924
101.008
100.085
99.1546
98.2173
97.2727
96.321
95.362
94.3959
93.4228
92.4426
91.4555
90.4618
89.4616
88.4554
87.4436
86.4271
85.4064
84.3827
83.3586
82.3329
81.3146
80.2945
79.2924
78.2831
77.2911
76.2535
160.189
160.205
160.235
160.281
160.343
160.422
160.519
160.633
160.766
160.918
161.088
161.279
161.488
161.717
161.965
162.232
162.516
162.816
163.131
163.458
163.794
164.137
164.483
164.828
165.168
165.498
165.815
166.115
166.395
166.651
166.881
167.083
167.256
167.399
167.51
167.591
167.64
167.659
167.648
167.607
167.539
167.444
167.322
167.177
167.007
166.816
166.605
166.373
166.123
165.856
165.573
165.274
164.961
164.635
164.296
163.945
163.583
163.211
162.829
162.438
162.038
161.63
161.214
160.79
160.36
159.923
159.479
159.029
158.574
158.112
157.646
157.174
156.697
156.214
155.727
155.236
154.739
154.238
153.733
153.223
152.708
152.189
151.666
151.139
150.607
150.071
149.531
148.986
148.437
147.884
147.327
146.765
146.199
145.629
145.054
144.475
143.891
143.303
142.71
142.113
141.511
140.905
140.294
139.678
139.057
138.432
137.802
137.167
136.527
135.883
135.233
134.578
133.918
133.254
132.583
131.908
131.228
130.542
129.851
129.154
128.452
127.745
127.032
126.313
125.589
124.86
124.124
123.383
122.636
121.883
121.124
120.359
119.588
118.811
118.028
117.239
116.443
115.642
114.834
114.02
113.199
112.372
111.538
110.698
109.851
108.997
108.137
107.27
106.396
105.515
104.627
103.733
102.831
101.922
101.006
100.083
99.153
98.2156
97.271
96.3192
95.3601
94.3939
93.4205
92.44
91.4526
90.4585
89.4577
88.4508
87.4382
86.4202
85.398
84.3717
83.3446
82.3139
81.2886
80.2586
79.2394
78.2095
77.1805
76.1099
159.483
159.5
159.53
159.577
159.641
159.722
159.822
159.942
160.081
160.24
160.42
160.622
160.845
161.091
161.358
161.647
161.956
162.285
162.632
162.993
163.367
163.749
164.135
164.52
164.9
165.269
165.623
165.958
166.268
166.552
166.806
167.029
167.219
167.375
167.497
167.586
167.641
167.664
167.656
167.617
167.548
167.452
167.33
167.183
167.012
166.819
166.605
166.372
166.12
165.851
165.566
165.266
164.951
164.624
164.284
163.932
163.57
163.197
162.815
162.423
162.023
161.614
161.198
160.775
160.345
159.908
159.464
159.015
158.56
158.099
157.632
157.16
156.684
156.202
155.715
155.224
154.728
154.227
153.722
153.212
152.698
152.18
151.657
151.13
150.599
150.063
149.523
148.979
148.43
147.877
147.32
146.759
146.193
145.623
145.048
144.469
143.886
143.298
142.705
142.108
141.506
140.9
140.289
139.674
139.053
138.428
137.798
137.164
136.524
135.879
135.23
134.575
133.915
133.251
132.581
131.905
131.225
130.539
129.848
129.152
128.45
127.743
127.03
126.311
125.587
124.857
124.122
123.381
122.634
121.881
121.122
120.357
119.586
118.809
118.026
117.237
116.442
115.64
114.832
114.018
113.197
112.37
111.536
110.696
109.849
108.995
108.135
107.268
106.394
105.513
104.626
103.731
102.829
101.921
101.005
100.082
99.1514
98.2139
97.2692
96.3173
95.3581
94.3917
93.4181
92.4373
91.4495
90.4549
89.4535
88.4457
87.432
86.4125
85.3886
84.3594
83.3287
82.293
81.2597
80.2203
79.1838
78.1356
77.0756
75.9777
158.613
158.631
158.661
158.708
158.773
158.855
158.956
159.077
159.219
159.382
159.569
159.778
160.013
160.273
160.559
160.872
161.209
161.571
161.956
162.36
162.781
163.214
163.654
164.094
164.529
164.952
165.357
165.738
166.091
166.412
166.699
166.948
167.161
167.335
167.472
167.572
167.635
167.664
167.659
167.622
167.555
167.459
167.336
167.187
167.015
166.82
166.604
166.369
166.115
165.845
165.558
165.256
164.941
164.612
164.271
163.919
163.556
163.182
162.799
162.407
162.007
161.598
161.182
160.759
160.329
159.892
159.449
159
158.545
158.084
157.618
157.147
156.67
156.189
155.703
155.212
154.716
154.216
153.711
153.202
152.688
152.17
151.648
151.121
150.59
150.055
149.515
148.971
148.423
147.87
147.313
146.752
146.187
145.617
145.042
144.463
143.88
143.292
142.7
142.103
141.502
140.896
140.285
139.67
139.049
138.424
137.795
137.16
136.52
135.876
135.226
134.572
133.912
133.248
132.578
131.903
131.222
130.537
129.846
129.149
128.448
127.74
127.027
126.309
125.585
124.855
124.12
123.379
122.632
121.879
121.12
120.355
119.584
118.807
118.025
117.235
116.44
115.638
114.83
114.016
113.195
112.368
111.535
110.694
109.848
108.994
108.134
107.267
106.393
105.512
104.624
103.729
102.828
101.919
101.003
100.08
99.1497
98.2122
97.2674
96.3154
95.356
94.3894
93.4155
92.4345
91.4462
90.451
89.449
88.4403
87.4254
86.4042
85.3781
84.3461
83.3113
82.2705
81.229
80.18
79.1278
78.0623
76.977
75.8564
157.576
157.591
157.618
157.658
157.716
157.791
157.886
158.001
158.138
158.297
158.481
158.691
158.93
159.198
159.499
159.832
160.198
160.597
161.027
161.485
161.967
162.469
162.982
163.497
164.009
164.507
164.983
165.43
165.842
166.215
166.545
166.832
167.074
167.273
167.429
167.543
167.618
167.655
167.655
167.622
167.556
167.461
167.338
167.188
167.014
166.818
166.601
166.364
166.108
165.836
165.548
165.245
164.928
164.599
164.257
163.904
163.54
163.166
162.783
162.391
161.99
161.582
161.165
160.742
160.312
159.876
159.433
158.984
158.529
158.069
157.603
157.132
156.656
156.175
155.69
155.199
154.704
154.204
153.7
153.191
152.678
152.16
151.638
151.112
150.581
150.046
149.507
148.963
148.415
147.863
147.306
146.745
146.18
145.61
145.036
144.458
143.875
143.287
142.695
142.098
141.497
140.891
140.281
139.665
139.045
138.421
137.791
137.156
136.517
135.873
135.223
134.569
133.909
133.245
132.575
131.9
131.22
130.534
129.843
129.147
128.445
127.738
127.025
126.307
125.583
124.853
124.118
123.377
122.63
121.877
121.118
120.353
119.582
118.806
118.023
117.234
116.438
115.637
114.829
114.015
113.194
112.367
111.533
110.693
109.846
108.992
108.132
107.265
106.391
105.51
104.623
103.728
102.826
101.917
101.002
100.078
99.1481
98.2105
97.2656
96.3134
95.3539
94.3871
93.4129
92.4315
91.4428
90.447
89.4441
88.4344
87.4182
86.3953
85.3669
84.332
83.2928
82.2468
81.1971
80.1386
79.0723
77.9907
76.8853
75.7451
156.302
156.32
156.344
156.381
156.431
156.495
156.573
156.669
156.786
156.926
157.091
157.283
157.508
157.768
158.068
158.411
158.8
159.236
159.718
160.244
160.809
161.404
162.019
162.643
163.266
163.874
164.454
164.997
165.493
165.939
166.33
166.666
166.949
167.18
167.361
167.495
167.585
167.632
167.641
167.612
167.55
167.456
167.333
167.184
167.009
166.812
166.593
166.355
166.098
165.825
165.535
165.231
164.914
164.583
164.241
163.887
163.523
163.148
162.765
162.373
161.972
161.563
161.148
160.724
160.295
159.858
159.416
158.967
158.513
158.053
157.588
157.117
156.642
156.161
155.676
155.186
154.691
154.192
153.688
153.179
152.667
152.149
151.628
151.102
150.572
150.037
149.498
148.955
148.407
147.855
147.299
146.738
146.173
145.604
145.03
144.452
143.869
143.282
142.69
142.093
141.492
140.887
140.276
139.661
139.041
138.417
137.787
137.153
136.513
135.869
135.22
134.566
133.906
133.242
132.572
131.897
131.217
130.532
129.841
129.145
128.443
127.736
127.023
126.305
125.581
124.851
124.116
123.375
122.628
121.875
121.116
120.351
119.581
118.804
118.021
117.232
116.437
115.635
114.827
114.013
113.192
112.365
111.532
110.691
109.845
108.991
108.131
107.264
106.39
105.509
104.621
103.727
102.825
101.916
101
100.077
99.1464
98.2087
97.2638
96.3115
95.3518
94.3847
93.4102
92.4284
91.4392
90.4427
89.4391
88.4283
87.4106
86.386
85.3551
84.3171
83.2736
82.2222
81.1647
80.0972
79.0181
77.9222
76.8
75.643
154.846
154.856
154.86
154.87
154.883
154.909
154.949
155.004
155.074
155.162
155.273
155.413
155.589
155.808
156.077
156.406
156.8
157.267
157.81
158.426
159.108
159.842
160.613
161.401
162.19
162.961
163.697
164.383
165.004
165.553
166.03
166.435
166.772
167.047
167.261
167.421
167.531
167.593
167.612
167.591
167.534
167.443
167.321
167.172
166.997
166.8
166.58
166.341
166.084
165.809
165.519
165.215
164.896
164.565
164.222
163.868
163.503
163.129
162.745
162.353
161.953
161.544
161.128
160.706
160.276
159.84
159.398
158.95
158.496
158.036
157.572
157.102
156.627
156.147
155.662
155.172
154.678
154.179
153.676
153.168
152.655
152.139
151.617
151.092
150.562
150.028
149.489
148.946
148.399
147.848
147.292
146.731
146.167
145.597
145.024
144.446
143.863
143.276
142.684
142.088
141.487
140.882
140.272
139.657
139.037
138.413
137.783
137.149
136.51
135.866
135.217
134.563
133.903
133.239
132.569
131.894
131.214
130.529
129.838
129.142
128.44
127.733
127.021
126.302
125.579
124.849
124.114
123.373
122.626
121.873
121.114
120.35
119.579
118.802
118.019
117.23
116.435
115.634
114.826
114.011
113.191
112.364
111.53
110.69
109.843
108.99
108.129
107.262
106.388
105.508
104.62
103.725
102.823
101.914
100.998
100.075
99.1448
98.207
97.2619
96.3095
95.3496
94.3823
93.4075
92.4252
91.4355
90.4384
89.4339
88.422
87.4028
86.3764
85.3429
84.3019
83.2539
82.1973
81.1324
80.0561
78.9658
77.857
76.7206
75.5497
153.075
153.076
153.06
153.039
153.021
152.999
152.969
152.933
152.901
152.886
152.889
152.919
152.98
153.086
153.251
153.501
153.858
154.341
154.96
155.71
156.575
157.528
158.532
159.563
160.596
161.61
162.582
163.485
164.297
165.006
165.611
166.116
166.53
166.861
167.12
167.315
167.45
167.532
167.566
167.555
167.504
167.417
167.299
167.151
166.978
166.78
166.561
166.322
166.064
165.79
165.499
165.194
164.876
164.544
164.201
163.847
163.482
163.108
162.724
162.332
161.932
161.524
161.108
160.686
160.257
159.821
159.379
158.932
158.478
158.019
157.555
157.086
156.611
156.131
155.647
155.158
154.664
154.166
153.663
153.156
152.644
152.127
151.607
151.082
150.552
150.018
149.48
148.938
148.391
147.84
147.284
146.724
146.16
145.591
145.017
144.44
143.857
143.27
142.679
142.083
141.482
140.877
140.267
139.652
139.033
138.409
137.779
137.145
136.506
135.862
135.213
134.559
133.9
133.236
132.566
131.892
131.212
130.526
129.836
129.14
128.438
127.731
127.018
126.3
125.577
124.847
124.112
123.371
122.624
121.871
121.112
120.348
119.577
118.801
118.018
117.229
116.434
115.632
114.824
114.01
113.189
112.362
111.529
110.689
109.842
108.988
108.128
107.261
106.387
105.506
104.619
103.724
102.822
101.913
100.997
100.074
99.1432
98.2053
97.2601
96.3075
95.3474
94.3798
93.4047
92.422
91.4318
90.434
89.4285
88.4155
87.3949
86.3665
85.3305
84.2863
83.2341
82.1723
81.1006
80.0161
78.9157
77.7954
76.6471
75.4643
151.06
151.048
150.993
150.903
150.778
150.628
150.46
150.275
150.071
149.853
149.631
149.423
149.243
149.113
149.068
149.155
149.43
149.927
150.659
151.614
152.761
154.051
155.425
156.835
158.242
159.62
160.944
162.178
163.286
164.243
165.041
165.692
166.21
166.618
166.935
167.172
167.341
167.447
167.498
167.5
167.458
167.378
167.264
167.12
166.948
166.753
166.535
166.296
166.039
165.765
165.475
165.17
164.851
164.52
164.177
163.823
163.458
163.084
162.701
162.309
161.909
161.502
161.087
160.665
160.236
159.801
159.36
158.913
158.46
158.001
157.538
157.069
156.595
156.116
155.632
155.144
154.65
154.152
153.65
153.143
152.632
152.116
151.596
151.071
150.542
150.009
149.471
148.929
148.382
147.831
147.276
146.717
146.152
145.584
145.011
144.433
143.851
143.265
142.674
142.078
141.477
140.872
140.263
139.648
139.029
138.405
137.776
137.142
136.503
135.859
135.21
134.556
133.897
133.233
132.564
131.889
131.209
130.524
129.833
129.137
128.436
127.729
127.016
126.298
125.574
124.845
124.11
123.369
122.622
121.869
121.111
120.346
119.576
118.799
118.016
117.227
116.432
115.631
114.823
114.009
113.188
112.361
111.527
110.687
109.84
108.987
108.127
107.26
106.386
105.505
104.617
103.722
102.821
101.912
100.995
100.072
99.1416
98.2036
97.2583
96.3055
95.3452
94.3774
93.4019
92.4188
91.428
90.4295
89.4232
88.409
87.3868
86.3566
85.3181
84.2708
83.2145
82.1477
81.0696
79.9775
78.8682
77.7377
76.5792
75.3864
148.745
148.698
148.554
148.347
148.079
147.75
147.34
146.855
146.298
145.697
145.07
144.442
143.847
143.336
142.979
142.852
143.03
143.555
144.446
145.703
147.292
149.134
151.121
153.134
155.101
156.99
158.785
160.46
161.969
163.263
164.325
165.165
165.817
166.322
166.708
166.997
167.204
167.339
167.411
167.428
167.397
167.325
167.217
167.077
166.909
166.716
166.5
166.263
166.008
165.734
165.445
165.141
164.823
164.492
164.15
163.796
163.432
163.059
162.676
162.285
161.885
161.478
161.064
160.642
160.214
159.78
159.339
158.893
158.441
157.983
157.52
157.052
156.578
156.1
155.617
155.129
154.636
154.139
153.637
153.13
152.62
152.104
151.584
151.06
150.532
149.999
149.461
148.92
148.374
147.823
147.268
146.709
146.145
145.577
145.004
144.427
143.845
143.259
142.668
142.073
141.472
140.868
140.258
139.644
139.024
138.4
137.772
137.138
136.499
135.855
135.207
134.553
133.894
133.23
132.561
131.886
131.206
130.521
129.831
129.135
128.434
127.727
127.014
126.296
125.572
124.843
124.108
123.367
122.62
121.868
121.109
120.345
119.574
118.797
118.015
117.226
116.43
115.629
114.821
114.007
113.187
112.36
111.526
110.686
109.839
108.985
108.125
107.258
106.384
105.504
104.616
103.721
102.819
101.91
100.994
100.071
99.14
98.202
97.2565
96.3035
95.343
94.3749
93.3991
92.4156
91.4243
90.4251
89.4178
88.4025
87.3788
86.3467
85.3058
84.2554
83.1952
82.1238
81.0397
79.9407
78.8233
77.684
76.5165
75.3153
146.102
145.996
145.737
145.346
144.817
144.144
143.313
142.318
141.157
139.86
138.479
137.108
135.865
134.867
134.2
133.948
134.162
134.898
136.175
138.001
140.32
143.008
145.89
148.771
151.506
154.043
156.382
158.547
160.503
162.172
163.521
164.572
165.376
165.989
166.453
166.798
167.047
167.212
167.306
167.34
167.322
167.259
167.158
167.025
166.861
166.672
166.459
166.225
165.971
165.699
165.411
165.108
164.791
164.461
164.12
163.767
163.404
163.031
162.649
162.258
161.86
161.453
161.04
160.619
160.192
159.758
159.318
158.872
158.421
157.964
157.501
157.034
156.561
156.083
155.601
155.113
154.621
154.125
153.623
153.117
152.607
152.092
151.573
151.049
150.521
149.989
149.452
148.911
148.365
147.815
147.26
146.701
146.138
145.57
144.998
144.421
143.839
143.253
142.662
142.067
141.467
140.863
140.253
139.639
139.02
138.396
137.768
137.134
136.496
135.852
135.203
134.55
133.891
133.227
132.558
131.883
131.204
130.519
129.828
129.133
128.431
127.724
127.012
126.294
125.57
124.841
124.106
123.365
122.618
121.866
121.107
120.343
119.572
118.796
118.013
117.224
116.429
115.628
114.82
114.006
113.185
112.358
111.525
110.685
109.838
108.984
108.124
107.257
106.383
105.502
104.615
103.72
102.818
101.909
100.993
100.069
99.1385
98.2003
97.2547
96.3016
95.3409
94.3725
93.3964
92.4125
91.4206
90.4207
89.4125
88.396
87.3709
86.337
85.2937
84.2405
83.1766
82.1007
81.0113
79.9059
78.7814
77.6342
76.459
75.2505
143.239
143.027
142.519
141.769
140.776
139.538
137.995
136.108
133.905
131.53
129.128
126.832
124.885
123.482
122.738
122.738
123.469
124.871
126.896
129.532
132.744
136.431
140.391
144.348
148.038
151.306
154.227
156.878
159.216
161.183
162.765
163.997
164.941
165.657
166.195
166.593
166.88
167.074
167.189
167.239
167.234
167.182
167.09
166.963
166.806
166.622
166.413
166.181
165.93
165.66
165.373
165.072
164.756
164.427
164.087
163.735
163.373
163.001
162.62
162.231
161.833
161.427
161.014
160.595
160.168
159.735
159.296
158.851
158.4
157.944
157.482
157.015
156.543
156.066
155.584
155.098
154.606
154.11
153.609
153.104
152.594
152.08
151.561
151.038
150.511
149.978
149.442
148.901
148.356
147.806
147.252
146.693
146.13
145.563
144.991
144.414
143.833
143.247
142.657
142.062
141.462
140.858
140.249
139.635
139.016
138.392
137.764
137.13
136.492
135.849
135.2
134.547
133.888
133.224
132.555
131.881
131.201
130.516
129.826
129.13
128.429
127.722
127.01
126.292
125.569
124.839
124.104
123.363
122.617
121.864
121.106
120.341
119.571
118.794
118.012
117.223
116.428
115.626
114.819
114.005
113.184
112.357
111.523
110.683
109.836
108.983
108.123
107.256
106.382
105.501
104.613
103.719
102.817
101.908
100.991
100.068
99.137
98.1987
97.253
96.2997
95.3388
94.3702
93.3938
92.4094
91.417
90.4164
89.4074
88.3898
87.3633
86.3275
85.282
84.226
83.1588
82.0787
80.9844
79.8733
78.7425
77.5885
76.4065
75.1916
139.999
139.582
138.674
137.338
135.531
133.274
130.549
127.366
123.862
120.376
117.073
114.106
111.744
110.226
109.718
110.378
112.171
114.827
118.109
121.958
126.321
131.174
136.251
141.162
145.627
149.511
152.878
155.827
158.366
160.48
162.191
163.544
164.59
165.383
165.975
166.409
166.72
166.933
167.065
167.128
167.135
167.094
167.012
166.895
166.745
166.566
166.361
166.133
165.884
165.616
165.332
165.032
164.718
164.391
164.052
163.701
163.34
162.97
162.59
162.201
161.805
161.4
160.988
160.569
160.144
159.712
159.273
158.829
158.379
157.924
157.463
156.997
156.525
156.049
155.568
155.082
154.591
154.096
153.595
153.091
152.582
152.068
151.55
151.027
150.5
149.968
149.432
148.892
148.347
147.798
147.244
146.686
146.123
145.556
144.984
144.408
143.827
143.241
142.651
142.056
141.457
140.853
140.244
139.63
139.012
138.388
137.76
137.127
136.488
135.845
135.197
134.543
133.885
133.221
132.552
131.878
131.199
130.514
129.824
129.128
128.427
127.72
127.008
126.29
125.567
124.837
124.102
123.362
122.615
121.863
121.104
120.34
119.569
118.793
118.01
117.221
116.426
115.625
114.817
114.003
113.183
112.356
111.522
110.682
109.835
108.982
108.122
107.255
106.381
105.5
104.612
103.717
102.815
101.906
100.99
100.066
99.1355
98.1972
97.2514
96.2979
95.3368
94.3679
93.3912
92.4064
91.4135
90.4122
89.4024
88.3838
87.3559
86.3185
85.2709
84.2123
83.1419
82.058
80.9592
79.843
78.7066
77.5466
76.3587
75.1384
136.53
135.816
134.248
131.823
128.538
124.636
120.452
115.935
111.337
107.221
103.802
101.297
99.8801
99.5574
100.391
102.572
105.954
110.098
114.592
119.379
124.477
129.89
135.367
140.501
145.097
149.121
152.58
155.529
158.036
160.139
161.873
163.273
164.365
165.189
165.802
166.252
166.575
166.798
166.94
167.014
167.032
167.001
166.928
166.819
166.676
166.503
166.303
166.078
165.832
165.567
165.285
164.987
164.675
164.35
164.013
163.664
163.305
162.936
162.557
162.17
161.775
161.372
160.961
160.543
160.118
159.687
159.25
158.807
158.358
157.903
157.443
156.978
156.507
156.032
155.551
155.066
154.576
154.081
153.581
153.077
152.569
152.055
151.538
151.016
150.489
149.958
149.422
148.882
148.338
147.789
147.236
146.678
146.115
145.548
144.977
144.401