/*--------------------------------*- C++ -*----------------------------------*\
| =========                 |                                                 |
| \\      /  F ield         | OpenFOAM: The Open Source CFD Toolbox           |
|  \\    /   O peration     | Version:  2.1.x                                 |
|   \\  /    A nd           | Web:      www.OpenFOAM.org                      |
|    \\/     M anipulation  |                                                 |
\*---------------------------------------------------------------------------*/
FoamFile
{
    version     2.0;
    format      ascii;
    class       volScalarField;
    location    "0.005";
    object      pPrime2Mean;
}
// * * * * * * * * * * * * * * * * * * * * * * * * * * * * * * * * * * * * * //

dimensions      [0 4 -4 0 0 0 0];

internalField   nonuniform List<scalar> 
12225
(
8.09158e+07
7.96259e+07
7.82954e+07
7.70122e+07
7.57787e+07
7.45922e+07
7.34495e+07
7.2347e+07
7.12812e+07
7.02482e+07
6.92438e+07
6.82631e+07
6.73005e+07
6.63487e+07
6.53975e+07
6.44318e+07
6.3423e+07
6.23032e+07
8.09174e+07
7.96265e+07
7.82959e+07
7.70128e+07
7.57794e+07
7.4593e+07
7.34504e+07
7.23481e+07
7.12826e+07
7.025e+07
6.9246e+07
6.8266e+07
6.73044e+07
6.63541e+07
6.54056e+07
6.44447e+07
6.34482e+07
6.23611e+07
8.0919e+07
7.96278e+07
7.82971e+07
7.70141e+07
7.57809e+07
7.45948e+07
7.34526e+07
7.23508e+07
7.12859e+07
7.0254e+07
6.92511e+07
6.82726e+07
6.73133e+07
6.63665e+07
6.54237e+07
6.44735e+07
6.34991e+07
6.24796e+07
8.09223e+07
7.96301e+07
7.82992e+07
7.70165e+07
7.57836e+07
7.4598e+07
7.34563e+07
7.23553e+07
7.12915e+07
7.0261e+07
6.926e+07
6.82841e+07
6.73284e+07
6.63873e+07
6.54538e+07
6.45198e+07
6.3577e+07
6.26266e+07
8.09262e+07
7.96337e+07
7.83026e+07
7.70201e+07
7.57878e+07
7.46029e+07
7.34621e+07
7.23623e+07
7.13e+07
7.02716e+07
6.92734e+07
6.83014e+07
6.73513e+07
6.64183e+07
6.54975e+07
6.45845e+07
6.36781e+07
6.279e+07
8.09331e+07
7.96391e+07
7.83076e+07
7.70255e+07
7.57939e+07
7.46099e+07
7.34705e+07
7.23724e+07
7.13123e+07
7.02869e+07
6.92926e+07
6.83259e+07
6.73832e+07
6.64609e+07
6.55561e+07
6.46675e+07
6.37984e+07
6.29632e+07
8.09442e+07
7.96466e+07
7.83145e+07
7.70329e+07
7.58022e+07
7.46196e+07
7.3482e+07
7.23862e+07
7.13291e+07
7.03076e+07
6.93185e+07
6.83587e+07
6.74254e+07
6.65162e+07
6.56299e+07
6.47674e+07
6.39342e+07
6.3143e+07
8.0954e+07
7.96547e+07
7.83224e+07
7.70413e+07
7.58118e+07
7.46307e+07
7.3495e+07
7.24018e+07
7.1348e+07
7.03307e+07
6.93471e+07
6.83946e+07
6.74708e+07
6.65745e+07
6.57052e+07
6.48651e+07
6.40598e+07
6.32995e+07
8.09641e+07
7.9663e+07
7.83308e+07
7.70504e+07
7.5822e+07
7.46425e+07
7.35089e+07
7.24184e+07
7.13681e+07
7.03552e+07
6.93772e+07
6.84319e+07
6.75176e+07
6.66334e+07
6.57798e+07
6.49592e+07
6.41769e+07
6.34405e+07
8.09734e+07
7.96735e+07
7.83418e+07
7.70623e+07
7.58355e+07
7.46581e+07
7.35272e+07
7.24401e+07
7.13941e+07
7.03868e+07
6.94157e+07
6.84792e+07
6.7576e+07
6.67057e+07
6.58692e+07
6.50689e+07
6.43091e+07
6.35953e+07
8.09853e+07
7.96868e+07
7.83561e+07
7.70781e+07
7.58531e+07
7.46784e+07
7.3551e+07
7.24683e+07
7.14277e+07
7.04271e+07
6.94645e+07
6.85384e+07
6.76479e+07
6.6793e+07
6.59747e+07
6.51949e+07
6.44569e+07
6.3764e+07
8.09972e+07
7.97038e+07
7.83749e+07
7.70986e+07
7.58762e+07
7.47048e+07
7.35818e+07
7.25045e+07
7.14706e+07
7.04782e+07
6.95255e+07
6.86113e+07
6.77351e+07
6.68967e+07
6.60971e+07
6.53376e+07
6.46202e+07
6.39465e+07
8.10198e+07
7.9727e+07
7.83994e+07
7.71253e+07
7.5906e+07
7.47388e+07
7.36211e+07
7.25504e+07
7.15245e+07
7.05417e+07
6.96005e+07
6.86997e+07
6.78387e+07
6.70176e+07
6.62367e+07
6.54967e+07
6.47984e+07
6.41423e+07
8.10551e+07
7.97581e+07
7.84311e+07
7.71595e+07
7.5944e+07
7.47819e+07
7.36706e+07
7.26077e+07
7.15912e+07
7.06194e+07
6.96908e+07
6.88044e+07
6.79595e+07
6.71557e+07
6.6393e+07
6.56713e+07
6.49906e+07
6.43503e+07
8.10929e+07
7.97967e+07
7.84712e+07
7.72026e+07
7.59917e+07
7.48356e+07
7.37318e+07
7.26779e+07
7.16719e+07
7.07121e+07
6.97971e+07
6.89257e+07
6.80969e+07
6.73101e+07
6.65646e+07
6.58598e+07
6.51948e+07
6.45687e+07
8.11428e+07
7.98447e+07
7.85206e+07
7.72557e+07
7.60501e+07
7.49009e+07
7.38055e+07
7.27615e+07
7.17669e+07
7.08198e+07
6.99188e+07
6.90623e+07
6.82493e+07
6.74785e+07
6.67488e+07
6.60592e+07
6.54083e+07
6.47947e+07
8.11967e+07
7.99003e+07
7.85792e+07
7.73188e+07
7.61194e+07
7.49778e+07
7.38915e+07
7.28579e+07
7.18751e+07
7.09409e+07
7.00536e+07
6.92115e+07
6.84132e+07
6.7657e+07
6.69416e+07
6.62653e+07
6.56266e+07
6.50239e+07
8.12532e+07
7.99591e+07
7.86415e+07
7.73858e+07
7.61924e+07
7.50583e+07
7.39806e+07
7.29568e+07
7.19846e+07
7.10619e+07
7.01866e+07
6.93568e+07
6.85707e+07
6.78265e+07
6.71225e+07
6.64569e+07
6.58279e+07
6.52337e+07
8.1304e+07
8.00119e+07
7.86972e+07
7.74455e+07
7.62572e+07
7.51291e+07
7.40583e+07
7.30422e+07
7.20783e+07
7.11643e+07
7.0298e+07
6.94772e+07
6.87001e+07
6.79645e+07
6.72686e+07
6.66105e+07
6.59882e+07
6.54e+07
8.13454e+07
8.00554e+07
7.87428e+07
7.7494e+07
7.63094e+07
7.51858e+07
7.41202e+07
7.31097e+07
7.21518e+07
7.12441e+07
7.03841e+07
6.95697e+07
6.87987e+07
6.80691e+07
6.73787e+07
6.67257e+07
6.61081e+07
6.55239e+07
8.13808e+07
8.00908e+07
7.87793e+07
7.75325e+07
7.63506e+07
7.52303e+07
7.41684e+07
7.3162e+07
7.22085e+07
7.13052e+07
7.04498e+07
6.96399e+07
6.88733e+07
6.81478e+07
6.74614e+07
6.68119e+07
6.61974e+07
6.5616e+07
8.14086e+07
8.01186e+07
7.88078e+07
7.75624e+07
7.63825e+07
7.52646e+07
7.42054e+07
7.3202e+07
7.22516e+07
7.13515e+07
7.04994e+07
6.96927e+07
6.89292e+07
6.82066e+07
6.75229e+07
6.68759e+07
6.62637e+07
6.56843e+07
8.14306e+07
8.014e+07
7.88295e+07
7.75852e+07
7.64067e+07
7.52904e+07
7.42332e+07
7.32319e+07
7.22838e+07
7.13861e+07
7.05362e+07
6.97319e+07
6.89706e+07
6.82501e+07
6.75683e+07
6.69231e+07
6.63124e+07
6.57344e+07
8.14482e+07
8.01562e+07
7.88458e+07
7.76021e+07
7.64246e+07
7.53096e+07
7.42538e+07
7.3254e+07
7.23075e+07
7.14114e+07
7.05633e+07
6.97605e+07
6.90007e+07
6.82818e+07
6.76013e+07
6.69573e+07
6.63478e+07
6.57708e+07
8.14602e+07
8.01677e+07
7.88575e+07
7.76144e+07
7.64377e+07
7.53235e+07
7.42686e+07
7.32699e+07
7.23245e+07
7.14296e+07
7.05826e+07
6.9781e+07
6.90223e+07
6.83044e+07
6.76249e+07
6.69818e+07
6.63731e+07
6.57967e+07
8.14673e+07
8.01754e+07
7.88658e+07
7.76231e+07
7.64469e+07
7.53333e+07
7.42791e+07
7.32811e+07
7.23365e+07
7.14424e+07
7.05961e+07
6.97953e+07
6.90374e+07
6.83201e+07
6.76413e+07
6.69988e+07
6.63906e+07
6.58147e+07
8.14695e+07
8.01802e+07
7.88713e+07
7.7629e+07
7.64531e+07
7.53399e+07
7.42861e+07
7.32886e+07
7.23445e+07
7.14509e+07
7.06052e+07
6.98049e+07
6.90475e+07
6.83307e+07
6.76523e+07
6.70102e+07
6.64023e+07
6.58268e+07
8.14722e+07
8.01833e+07
7.88749e+07
7.76329e+07
7.64571e+07
7.53441e+07
7.42905e+07
7.32934e+07
7.23496e+07
7.14563e+07
7.06109e+07
6.98109e+07
6.90538e+07
6.83373e+07
6.76592e+07
6.70173e+07
6.64097e+07
6.58343e+07
8.14727e+07
8.01849e+07
7.8877e+07
7.76351e+07
7.64594e+07
7.53465e+07
7.42931e+07
7.3296e+07
7.23524e+07
7.14593e+07
7.06141e+07
6.98143e+07
6.90574e+07
6.8341e+07
6.7663e+07
6.70213e+07
6.64138e+07
6.58386e+07
8.14719e+07
8.01854e+07
7.88778e+07
7.7636e+07
7.64603e+07
7.53475e+07
7.42941e+07
7.32971e+07
7.23536e+07
7.14606e+07
7.06154e+07
6.98157e+07
6.90588e+07
6.83426e+07
6.76646e+07
6.7023e+07
6.64155e+07
6.58403e+07
5.26405e+07
5.26363e+07
5.26279e+07
5.26151e+07
5.25978e+07
5.2576e+07
5.25496e+07
5.25185e+07
5.24827e+07
5.24421e+07
5.23967e+07
5.23464e+07
5.22912e+07
5.2231e+07
5.21659e+07
5.20957e+07
5.20206e+07
5.19404e+07
5.18552e+07
5.17651e+07
5.16699e+07
5.15697e+07
5.14647e+07
5.13546e+07
5.12397e+07
5.112e+07
5.09954e+07
5.0866e+07
5.0732e+07
5.05933e+07
5.04499e+07
5.0302e+07
5.01496e+07
4.99928e+07
4.98316e+07
4.96661e+07
4.94964e+07
4.93225e+07
4.91445e+07
4.89624e+07
4.87764e+07
4.85865e+07
4.83927e+07
4.81952e+07
4.7994e+07
4.77891e+07
4.75807e+07
4.73688e+07
4.71535e+07
4.69348e+07
4.67129e+07
4.64877e+07
4.62593e+07
4.60279e+07
4.57934e+07
4.55559e+07
4.53156e+07
4.50723e+07
4.48263e+07
4.45775e+07
4.4326e+07
4.4072e+07
4.38153e+07
4.35561e+07
4.32944e+07
4.30303e+07
4.27638e+07
4.24951e+07
4.2224e+07
4.19507e+07
4.16752e+07
4.13976e+07
4.11179e+07
4.08361e+07
4.05524e+07
4.02666e+07
3.9979e+07
3.96894e+07
3.9398e+07
3.91048e+07
3.88099e+07
3.85132e+07
3.82148e+07
3.79147e+07
3.7613e+07
3.73097e+07
3.70049e+07
3.66985e+07
3.63906e+07
3.60813e+07
3.57705e+07
3.54584e+07
3.51449e+07
3.483e+07
3.45139e+07
3.41965e+07
3.38778e+07
3.35579e+07
3.32369e+07
3.29147e+07
3.25914e+07
3.2267e+07
3.19415e+07
3.1615e+07
3.12875e+07
3.09591e+07
3.06297e+07
3.02993e+07
2.99681e+07
2.96361e+07
2.93032e+07
2.89696e+07
2.86352e+07
2.83001e+07
2.79642e+07
2.76278e+07
2.72907e+07
2.6953e+07
2.66147e+07
2.62759e+07
2.59366e+07
2.55969e+07
2.52567e+07
2.49162e+07
2.45753e+07
2.42341e+07
2.38926e+07
2.35509e+07
2.3209e+07
2.28669e+07
2.25248e+07
2.21825e+07
2.18402e+07
2.1498e+07
2.11557e+07
2.08136e+07
2.04717e+07
2.01299e+07
1.97883e+07
1.94471e+07
1.91062e+07
1.87657e+07
1.84256e+07
1.8086e+07
1.7747e+07
1.74086e+07
1.70708e+07
1.67337e+07
1.63975e+07
1.6062e+07
1.57275e+07
1.53939e+07
1.50613e+07
1.47299e+07
1.43995e+07
1.40704e+07
1.37427e+07
1.34162e+07
1.30912e+07
1.27677e+07
1.24459e+07
1.21257e+07
1.18072e+07
1.14906e+07
1.11759e+07
1.08632e+07
1.05527e+07
1.02444e+07
9.9384e+06
9.63487e+06
9.33391e+06
9.03568e+06
8.74032e+06
8.44803e+06
8.15904e+06
7.87362e+06
7.59217e+06
7.31525e+06
7.04384e+06
6.78004e+06
5.26597e+07
5.26555e+07
5.2647e+07
5.26341e+07
5.26167e+07
5.25948e+07
5.25682e+07
5.25369e+07
5.25009e+07
5.24601e+07
5.24144e+07
5.23639e+07
5.23083e+07
5.22479e+07
5.21824e+07
5.21119e+07
5.20364e+07
5.19559e+07
5.18703e+07
5.17797e+07
5.16842e+07
5.15836e+07
5.14781e+07
5.13677e+07
5.12524e+07
5.11322e+07
5.10072e+07
5.08775e+07
5.0743e+07
5.06039e+07
5.04601e+07
5.03119e+07
5.01591e+07
5.00019e+07
4.98403e+07
4.96745e+07
4.95044e+07
4.93301e+07
4.91518e+07
4.89694e+07
4.87831e+07
4.85928e+07
4.83988e+07
4.8201e+07
4.79995e+07
4.77944e+07
4.75857e+07
4.73736e+07
4.7158e+07
4.69392e+07
4.6717e+07
4.64916e+07
4.6263e+07
4.60314e+07
4.57967e+07
4.55591e+07
4.53185e+07
4.50751e+07
4.48289e+07
4.458e+07
4.43284e+07
4.40742e+07
4.38174e+07
4.35581e+07
4.32963e+07
4.30321e+07
4.27655e+07
4.24966e+07
4.22255e+07
4.19521e+07
4.16765e+07
4.13988e+07
4.11191e+07
4.08372e+07
4.05534e+07
4.02676e+07
3.99799e+07
3.96903e+07
3.93988e+07
3.91056e+07
3.88106e+07
3.85138e+07
3.82154e+07
3.79152e+07
3.76135e+07
3.73102e+07
3.70053e+07
3.66989e+07
3.6391e+07
3.60817e+07
3.57709e+07
3.54587e+07
3.51452e+07
3.48303e+07
3.45141e+07
3.41967e+07
3.3878e+07
3.35582e+07
3.32371e+07
3.29149e+07
3.25915e+07
3.22671e+07
3.19417e+07
3.16151e+07
3.12876e+07
3.09592e+07
3.06298e+07
3.02994e+07
2.99682e+07
2.96362e+07
2.93033e+07
2.89697e+07
2.86352e+07
2.83001e+07
2.79643e+07
2.76278e+07
2.72907e+07
2.6953e+07
2.66147e+07
2.62759e+07
2.59367e+07
2.55969e+07
2.52568e+07
2.49162e+07
2.45753e+07
2.42341e+07
2.38926e+07
2.35509e+07
2.3209e+07
2.28669e+07
2.25248e+07
2.21825e+07
2.18402e+07
2.1498e+07
2.11557e+07
2.08136e+07
2.04717e+07
2.01299e+07
1.97884e+07
1.94471e+07
1.91062e+07
1.87657e+07
1.84256e+07
1.8086e+07
1.7747e+07
1.74086e+07
1.70708e+07
1.67337e+07
1.63975e+07
1.6062e+07
1.57275e+07
1.53939e+07
1.50613e+07
1.47299e+07
1.43995e+07
1.40704e+07
1.37426e+07
1.34162e+07
1.30912e+07
1.27677e+07
1.24459e+07
1.21256e+07
1.18072e+07
1.14906e+07
1.11759e+07
1.08632e+07
1.05527e+07
1.02444e+07
9.93837e+06
9.63483e+06
9.33386e+06
9.03561e+06
8.74023e+06
8.44791e+06
8.15888e+06
7.8734e+06
7.59184e+06
7.31474e+06
7.04293e+06
6.77791e+06
5.26983e+07
5.2694e+07
5.26853e+07
5.26722e+07
5.26546e+07
5.26324e+07
5.26055e+07
5.25739e+07
5.25374e+07
5.24962e+07
5.245e+07
5.23988e+07
5.23427e+07
5.22816e+07
5.22155e+07
5.21443e+07
5.20681e+07
5.19868e+07
5.19005e+07
5.18092e+07
5.17128e+07
5.16114e+07
5.15051e+07
5.13939e+07
5.12777e+07
5.11567e+07
5.10309e+07
5.09003e+07
5.07651e+07
5.06251e+07
5.04806e+07
5.03315e+07
5.0178e+07
5.002e+07
4.98577e+07
4.96911e+07
4.95204e+07
4.93454e+07
4.91664e+07
4.89834e+07
4.87964e+07
4.86056e+07
4.84109e+07
4.82126e+07
4.80105e+07
4.78049e+07
4.75957e+07
4.73831e+07
4.71671e+07
4.69477e+07
4.67251e+07
4.64993e+07
4.62704e+07
4.60383e+07
4.58033e+07
4.55653e+07
4.53244e+07
4.50807e+07
4.48342e+07
4.4585e+07
4.43331e+07
4.40787e+07
4.38216e+07
4.3562e+07
4.33e+07
4.30356e+07
4.27688e+07
4.24998e+07
4.22284e+07
4.19549e+07
4.16791e+07
4.14013e+07
4.11214e+07
4.08394e+07
4.05554e+07
4.02695e+07
3.99817e+07
3.9692e+07
3.94004e+07
3.91071e+07
3.88119e+07
3.85151e+07
3.82166e+07
3.79164e+07
3.76146e+07
3.73112e+07
3.70062e+07
3.66998e+07
3.63918e+07
3.60824e+07
3.57716e+07
3.54594e+07
3.51458e+07
3.48309e+07
3.45147e+07
3.41972e+07
3.38785e+07
3.35586e+07
3.32375e+07
3.29152e+07
3.25919e+07
3.22674e+07
3.19419e+07
3.16154e+07
3.12879e+07
3.09594e+07
3.063e+07
3.02996e+07
2.99684e+07
2.96363e+07
2.93035e+07
2.89698e+07
2.86354e+07
2.83002e+07
2.79644e+07
2.76279e+07
2.72908e+07
2.69531e+07
2.66148e+07
2.6276e+07
2.59367e+07
2.5597e+07
2.52568e+07
2.49163e+07
2.45754e+07
2.42342e+07
2.38927e+07
2.3551e+07
2.3209e+07
2.2867e+07
2.25248e+07
2.21825e+07
2.18403e+07
2.1498e+07
2.11558e+07
2.08136e+07
2.04717e+07
2.01299e+07
1.97884e+07
1.94471e+07
1.91062e+07
1.87657e+07
1.84256e+07
1.8086e+07
1.7747e+07
1.74086e+07
1.70708e+07
1.67337e+07
1.63975e+07
1.6062e+07
1.57275e+07
1.53939e+07
1.50613e+07
1.47299e+07
1.43995e+07
1.40704e+07
1.37426e+07
1.34162e+07
1.30912e+07
1.27677e+07
1.24458e+07
1.21256e+07
1.18072e+07
1.14906e+07
1.11759e+07
1.08632e+07
1.05526e+07
1.02443e+07
9.9383e+06
9.63474e+06
9.33375e+06
9.03547e+06
8.74005e+06
8.44768e+06
8.15856e+06
7.87296e+06
7.59121e+06
7.31378e+06
7.04129e+06
6.77458e+06
5.27564e+07
5.2752e+07
5.27431e+07
5.27297e+07
5.27118e+07
5.26891e+07
5.26617e+07
5.26295e+07
5.25924e+07
5.25504e+07
5.25035e+07
5.24515e+07
5.23945e+07
5.23324e+07
5.22653e+07
5.21931e+07
5.21157e+07
5.20333e+07
5.19459e+07
5.18533e+07
5.17558e+07
5.16532e+07
5.15456e+07
5.14331e+07
5.13157e+07
5.11935e+07
5.10664e+07
5.09346e+07
5.07981e+07
5.06569e+07
5.05112e+07
5.0361e+07
5.02063e+07
5.00472e+07
4.98838e+07
4.97161e+07
4.95443e+07
4.93683e+07
4.91883e+07
4.90043e+07
4.88164e+07
4.86246e+07
4.84291e+07
4.82299e+07
4.8027e+07
4.78206e+07
4.76107e+07
4.73973e+07
4.71806e+07
4.69606e+07
4.67373e+07
4.65109e+07
4.62813e+07
4.60488e+07
4.58132e+07
4.55747e+07
4.53333e+07
4.50891e+07
4.48421e+07
4.45925e+07
4.43402e+07
4.40853e+07
4.38279e+07
4.3568e+07
4.33056e+07
4.30409e+07
4.27738e+07
4.25045e+07
4.22328e+07
4.1959e+07
4.1683e+07
4.1405e+07
4.11248e+07
4.08426e+07
4.05585e+07
4.02724e+07
3.99843e+07
3.96945e+07
3.94028e+07
3.91092e+07
3.8814e+07
3.8517e+07
3.82184e+07
3.79181e+07
3.76161e+07
3.73126e+07
3.70076e+07
3.6701e+07
3.6393e+07
3.60835e+07
3.57726e+07
3.54603e+07
3.51467e+07
3.48317e+07
3.45154e+07
3.41979e+07
3.38791e+07
3.35592e+07
3.3238e+07
3.29158e+07
3.25924e+07
3.22679e+07
3.19423e+07
3.16158e+07
3.12882e+07
3.09597e+07
3.06303e+07
3.02999e+07
2.99687e+07
2.96366e+07
2.93037e+07
2.897e+07
2.86356e+07
2.83004e+07
2.79645e+07
2.7628e+07
2.72909e+07
2.69532e+07
2.66149e+07
2.62761e+07
2.59368e+07
2.55971e+07
2.52569e+07
2.49163e+07
2.45754e+07
2.42342e+07
2.38927e+07
2.3551e+07
2.32091e+07
2.2867e+07
2.25248e+07
2.21826e+07
2.18403e+07
2.1498e+07
2.11558e+07
2.08137e+07
2.04717e+07
2.01299e+07
1.97884e+07
1.94471e+07
1.91062e+07
1.87657e+07
1.84256e+07
1.8086e+07
1.7747e+07
1.74086e+07
1.70708e+07
1.67338e+07
1.63975e+07
1.6062e+07
1.57275e+07
1.53939e+07
1.50613e+07
1.47299e+07
1.43995e+07
1.40704e+07
1.37426e+07
1.34162e+07
1.30912e+07
1.27677e+07
1.24458e+07
1.21256e+07
1.18071e+07
1.14905e+07
1.11758e+07
1.08631e+07
1.05526e+07
1.02442e+07
9.93821e+06
9.63462e+06
9.3336e+06
9.03527e+06
8.73979e+06
8.44733e+06
8.15809e+06
7.87232e+06
7.5903e+06
7.31242e+06
7.0391e+06
6.77071e+06
5.28344e+07
5.28298e+07
5.28207e+07
5.28069e+07
5.27885e+07
5.27653e+07
5.27372e+07
5.27042e+07
5.26662e+07
5.26232e+07
5.25752e+07
5.25221e+07
5.24639e+07
5.24005e+07
5.2332e+07
5.22583e+07
5.21795e+07
5.20956e+07
5.20065e+07
5.19124e+07
5.18131e+07
5.17089e+07
5.15997e+07
5.14855e+07
5.13664e+07
5.12424e+07
5.11137e+07
5.09802e+07
5.08421e+07
5.06993e+07
5.05519e+07
5.04001e+07
5.02439e+07
5.00833e+07
4.99184e+07
4.97493e+07
4.9576e+07
4.93987e+07
4.92173e+07
4.9032e+07
4.88429e+07
4.86499e+07
4.84532e+07
4.82529e+07
4.80489e+07
4.78414e+07
4.76305e+07
4.74162e+07
4.71985e+07
4.69776e+07
4.67535e+07
4.65262e+07
4.62959e+07
4.60625e+07
4.58262e+07
4.5587e+07
4.5345e+07
4.51002e+07
4.48526e+07
4.46024e+07
4.43496e+07
4.40942e+07
4.38363e+07
4.35759e+07
4.33131e+07
4.30479e+07
4.27804e+07
4.25107e+07
4.22387e+07
4.19645e+07
4.16882e+07
4.14098e+07
4.11294e+07
4.08469e+07
4.05625e+07
4.02761e+07
3.99879e+07
3.96978e+07
3.94059e+07
3.91122e+07
3.88167e+07
3.85196e+07
3.82207e+07
3.79203e+07
3.76182e+07
3.73146e+07
3.70094e+07
3.67027e+07
3.63946e+07
3.6085e+07
3.5774e+07
3.54616e+07
3.51478e+07
3.48328e+07
3.45164e+07
3.41988e+07
3.388e+07
3.356e+07
3.32388e+07
3.29165e+07
3.2593e+07
3.22685e+07
3.19429e+07
3.16163e+07
3.12887e+07
3.09601e+07
3.06307e+07
3.03003e+07
2.9969e+07
2.96369e+07
2.9304e+07
2.89703e+07
2.86358e+07
2.83006e+07
2.79647e+07
2.76282e+07
2.72911e+07
2.69533e+07
2.66151e+07
2.62762e+07
2.59369e+07
2.55972e+07
2.5257e+07
2.49164e+07
2.45755e+07
2.42343e+07
2.38928e+07
2.35511e+07
2.32091e+07
2.28671e+07
2.25249e+07
2.21826e+07
2.18403e+07
2.1498e+07
2.11558e+07
2.08137e+07
2.04717e+07
2.01299e+07
1.97884e+07
1.94472e+07
1.91062e+07
1.87657e+07
1.84256e+07
1.80861e+07
1.7747e+07
1.74086e+07
1.70708e+07
1.67338e+07
1.63975e+07
1.6062e+07
1.57275e+07
1.53939e+07
1.50613e+07
1.47299e+07
1.43995e+07
1.40704e+07
1.37426e+07
1.34162e+07
1.30912e+07
1.27677e+07
1.24458e+07
1.21256e+07
1.18071e+07
1.14905e+07
1.11758e+07
1.08631e+07
1.05525e+07
1.02441e+07
9.93808e+06
9.63446e+06
9.33339e+06
9.035e+06
8.73944e+06
8.44688e+06
8.15749e+06
7.8715e+06
7.58916e+06
7.31076e+06
7.03656e+06
6.76663e+06
5.29329e+07
5.2928e+07
5.29186e+07
5.29043e+07
5.28852e+07
5.28613e+07
5.28323e+07
5.27983e+07
5.27592e+07
5.27149e+07
5.26655e+07
5.26109e+07
5.25511e+07
5.2486e+07
5.24157e+07
5.23402e+07
5.22595e+07
5.21736e+07
5.20825e+07
5.19863e+07
5.1885e+07
5.17786e+07
5.16673e+07
5.15509e+07
5.14297e+07
5.13036e+07
5.11728e+07
5.10372e+07
5.08969e+07
5.07521e+07
5.06027e+07
5.04489e+07
5.02907e+07
5.01282e+07
4.99615e+07
4.97905e+07
4.96155e+07
4.94364e+07
4.92534e+07
4.90665e+07
4.88758e+07
4.86813e+07
4.84832e+07
4.82814e+07
4.80761e+07
4.78673e+07
4.76551e+07
4.74396e+07
4.72208e+07
4.69987e+07
4.67736e+07
4.65453e+07
4.6314e+07
4.60797e+07
4.58425e+07
4.56024e+07
4.53596e+07
4.51139e+07
4.48656e+07
4.46147e+07
4.43612e+07
4.41052e+07
4.38466e+07
4.35856e+07
4.33223e+07
4.30566e+07
4.27886e+07
4.25184e+07
4.22459e+07
4.19714e+07
4.16946e+07
4.14159e+07
4.11351e+07
4.08523e+07
4.05675e+07
4.02808e+07
3.99923e+07
3.97019e+07
3.94097e+07
3.91158e+07
3.88201e+07
3.85227e+07
3.82237e+07
3.7923e+07
3.76208e+07
3.7317e+07
3.70116e+07
3.67048e+07
3.63965e+07
3.60868e+07
3.57757e+07
3.54632e+07
3.51493e+07
3.48341e+07
3.45177e+07
3.42e+07
3.38811e+07
3.3561e+07
3.32397e+07
3.29173e+07
3.25938e+07
3.22692e+07
3.19436e+07
3.16169e+07
3.12893e+07
3.09607e+07
3.06312e+07
3.03007e+07
2.99694e+07
2.96373e+07
2.93043e+07
2.89706e+07
2.86361e+07
2.83009e+07
2.7965e+07
2.76285e+07
2.72913e+07
2.69535e+07
2.66152e+07
2.62764e+07
2.59371e+07
2.55973e+07
2.52571e+07
2.49165e+07
2.45756e+07
2.42344e+07
2.38929e+07
2.35511e+07
2.32092e+07
2.28671e+07
2.25249e+07
2.21827e+07
2.18404e+07
2.14981e+07
2.11559e+07
2.08137e+07
2.04718e+07
2.013e+07
1.97884e+07
1.94472e+07
1.91063e+07
1.87657e+07
1.84257e+07
1.80861e+07
1.7747e+07
1.74086e+07
1.70708e+07
1.67338e+07
1.63975e+07
1.6062e+07
1.57275e+07
1.53939e+07
1.50613e+07
1.47299e+07
1.43995e+07
1.40704e+07
1.37426e+07
1.34162e+07
1.30912e+07
1.27677e+07
1.24458e+07
1.21256e+07
1.18071e+07
1.14904e+07
1.11757e+07
1.0863e+07
1.05524e+07
1.0244e+07
9.93792e+06
9.63426e+06
9.33314e+06
9.03468e+06
8.73903e+06
8.44634e+06
8.15678e+06
7.87054e+06
7.58783e+06
7.30886e+06
7.03379e+06
6.76251e+06
5.30524e+07
5.30473e+07
5.30374e+07
5.30225e+07
5.30027e+07
5.29777e+07
5.29476e+07
5.29123e+07
5.28718e+07
5.28259e+07
5.27748e+07
5.27183e+07
5.26565e+07
5.25893e+07
5.25169e+07
5.24391e+07
5.2356e+07
5.22676e+07
5.21741e+07
5.20753e+07
5.19714e+07
5.18625e+07
5.17485e+07
5.16295e+07
5.15057e+07
5.1377e+07
5.12435e+07
5.11054e+07
5.09626e+07
5.08153e+07
5.06635e+07
5.05073e+07
5.03467e+07
5.01819e+07
5.00129e+07
4.98398e+07
4.96626e+07
4.94815e+07
4.92965e+07
4.91077e+07
4.89151e+07
4.87188e+07
4.85189e+07
4.83154e+07
4.81085e+07
4.78982e+07
4.76845e+07
4.74675e+07
4.72473e+07
4.70239e+07
4.67974e+07
4.65679e+07
4.63355e+07
4.61e+07
4.58618e+07
4.56207e+07
4.53769e+07
4.51303e+07
4.48811e+07
4.46294e+07
4.4375e+07
4.41182e+07
4.38589e+07
4.35973e+07
4.33333e+07
4.30669e+07
4.27984e+07
4.25276e+07
4.22546e+07
4.19795e+07
4.17023e+07
4.14231e+07
4.11418e+07
4.08586e+07
4.05734e+07
4.02864e+07
3.99975e+07
3.97068e+07
3.94143e+07
3.91201e+07
3.88241e+07
3.85265e+07
3.82272e+07
3.79263e+07
3.76239e+07
3.73199e+07
3.70143e+07
3.67073e+07
3.63988e+07
3.6089e+07
3.57777e+07
3.5465e+07
3.5151e+07
3.48358e+07
3.45192e+07
3.42014e+07
3.38824e+07
3.35622e+07
3.32408e+07
3.29183e+07
3.25948e+07
3.22701e+07
3.19444e+07
3.16177e+07
3.129e+07
3.09613e+07
3.06317e+07
3.03013e+07
2.99699e+07
2.96377e+07
2.93047e+07
2.8971e+07
2.86365e+07
2.83012e+07
2.79653e+07
2.76287e+07
2.72915e+07
2.69538e+07
2.66154e+07
2.62766e+07
2.59373e+07
2.55975e+07
2.52573e+07
2.49167e+07
2.45757e+07
2.42345e+07
2.3893e+07
2.35512e+07
2.32093e+07
2.28672e+07
2.2525e+07
2.21827e+07
2.18404e+07
2.14981e+07
2.11559e+07
2.08138e+07
2.04718e+07
2.013e+07
1.97885e+07
1.94472e+07
1.91063e+07
1.87658e+07
1.84257e+07
1.80861e+07
1.7747e+07
1.74086e+07
1.70708e+07
1.67338e+07
1.63975e+07
1.6062e+07
1.57275e+07
1.53939e+07
1.50613e+07
1.47299e+07
1.43995e+07
1.40704e+07
1.37426e+07
1.34162e+07
1.30912e+07
1.27677e+07
1.24458e+07
1.21255e+07
1.1807e+07
1.14904e+07
1.11756e+07
1.08629e+07
1.05523e+07
1.02439e+07
9.93774e+06
9.63403e+06
9.33285e+06
9.03431e+06
8.73855e+06
8.44571e+06
8.15596e+06
7.86944e+06
7.58634e+06
7.30681e+06
7.0309e+06
6.75845e+06
5.31938e+07
5.31884e+07
5.31779e+07
5.31623e+07
5.31415e+07
5.31153e+07
5.30839e+07
5.3047e+07
5.30046e+07
5.29569e+07
5.29036e+07
5.28448e+07
5.27806e+07
5.27109e+07
5.26357e+07
5.25552e+07
5.24692e+07
5.23779e+07
5.22813e+07
5.21795e+07
5.20725e+07
5.19604e+07
5.18433e+07
5.17212e+07
5.15943e+07
5.14625e+07
5.13259e+07
5.11848e+07
5.1039e+07
5.08887e+07
5.0734e+07
5.0575e+07
5.04117e+07
5.02442e+07
5.00725e+07
4.98969e+07
4.97172e+07
4.95337e+07
4.93464e+07
4.91553e+07
4.89605e+07
4.87621e+07
4.85602e+07
4.83548e+07
4.8146e+07
4.79338e+07
4.77184e+07
4.74997e+07
4.72779e+07
4.7053e+07
4.6825e+07
4.65941e+07
4.63603e+07
4.61236e+07
4.58841e+07
4.56418e+07
4.53968e+07
4.51492e+07
4.4899e+07
4.46463e+07
4.4391e+07
4.41333e+07
4.38732e+07
4.36107e+07
4.33459e+07
4.30789e+07
4.28096e+07
4.25382e+07
4.22646e+07
4.19889e+07
4.17111e+07
4.14313e+07
4.11496e+07
4.08659e+07
4.05803e+07
4.02929e+07
4.00036e+07
3.97125e+07
3.94196e+07
3.9125e+07
3.88288e+07
3.85308e+07
3.82313e+07
3.79301e+07
3.76274e+07
3.73232e+07
3.70174e+07
3.67102e+07
3.64015e+07
3.60914e+07
3.578e+07
3.54672e+07
3.51531e+07
3.48376e+07
3.45209e+07
3.4203e+07
3.38839e+07
3.35636e+07
3.32421e+07
3.29195e+07
3.25959e+07
3.22711e+07
3.19453e+07
3.16186e+07
3.12908e+07
3.09621e+07
3.06324e+07
3.03019e+07
2.99705e+07
2.96383e+07
2.93052e+07
2.89714e+07
2.86369e+07
2.83016e+07
2.79657e+07
2.76291e+07
2.72918e+07
2.6954e+07
2.66157e+07
2.62768e+07
2.59375e+07
2.55976e+07
2.52574e+07
2.49168e+07
2.45759e+07
2.42346e+07
2.38931e+07
2.35513e+07
2.32094e+07
2.28673e+07
2.25251e+07
2.21828e+07
2.18405e+07
2.14982e+07
2.1156e+07
2.08138e+07
2.04718e+07
2.013e+07
1.97885e+07
1.94472e+07
1.91063e+07
1.87658e+07
1.84257e+07
1.80861e+07
1.77471e+07
1.74086e+07
1.70708e+07
1.67338e+07
1.63975e+07
1.60621e+07
1.57275e+07
1.53939e+07
1.50613e+07
1.47299e+07
1.43995e+07
1.40704e+07
1.37426e+07
1.34162e+07
1.30911e+07
1.27676e+07
1.24457e+07
1.21255e+07
1.1807e+07
1.14903e+07
1.11756e+07
1.08628e+07
1.05522e+07
1.02437e+07
9.93754e+06
9.63378e+06
9.33252e+06
9.03389e+06
8.73801e+06
8.44502e+06
8.15505e+06
7.86825e+06
7.58475e+06
7.30466e+06
7.02797e+06
6.75449e+06
5.33582e+07
5.33523e+07
5.33412e+07
5.33246e+07
5.33026e+07
5.3275e+07
5.32419e+07
5.32031e+07
5.31586e+07
5.31084e+07
5.30526e+07
5.2991e+07
5.29239e+07
5.28511e+07
5.27727e+07
5.26888e+07
5.25994e+07
5.25046e+07
5.24044e+07
5.2299e+07
5.21884e+07
5.20726e+07
5.19518e+07
5.1826e+07
5.16954e+07
5.156e+07
5.14199e+07
5.12752e+07
5.11259e+07
5.09723e+07
5.08142e+07
5.06519e+07
5.04854e+07
5.03148e+07
5.01402e+07
4.99616e+07
4.97791e+07
4.95929e+07
4.94029e+07
4.92092e+07
4.90119e+07
4.88111e+07
4.86069e+07
4.83993e+07
4.81883e+07
4.79741e+07
4.77567e+07
4.75361e+07
4.73125e+07
4.70859e+07
4.68562e+07
4.66237e+07
4.63883e+07
4.61502e+07
4.59093e+07
4.56657e+07
4.54194e+07
4.51706e+07
4.49192e+07
4.46654e+07
4.4409e+07
4.41503e+07
4.38893e+07
4.36259e+07
4.33602e+07
4.30924e+07
4.28223e+07
4.25501e+07
4.22758e+07
4.19995e+07
4.17211e+07
4.14407e+07
4.11584e+07
4.08742e+07
4.05881e+07
4.03001e+07
4.00104e+07
3.97189e+07
3.94256e+07
3.91307e+07
3.8834e+07
3.85358e+07
3.82359e+07
3.79344e+07
3.76314e+07
3.73269e+07
3.70209e+07
3.67134e+07
3.64046e+07
3.60943e+07
3.57826e+07
3.54696e+07
3.51553e+07
3.48397e+07
3.45229e+07
3.42048e+07
3.38856e+07
3.35652e+07
3.32436e+07
3.29209e+07
3.25971e+07
3.22723e+07
3.19464e+07
3.16195e+07
3.12917e+07
3.09629e+07
3.06332e+07
3.03026e+07
2.99712e+07
2.96389e+07
2.93058e+07
2.89719e+07
2.86373e+07
2.8302e+07
2.7966e+07
2.76294e+07
2.72922e+07
2.69543e+07
2.6616e+07
2.62771e+07
2.59377e+07
2.55979e+07
2.52576e+07
2.4917e+07
2.4576e+07
2.42348e+07
2.38932e+07
2.35515e+07
2.32095e+07
2.28674e+07
2.25252e+07
2.21829e+07
2.18406e+07
2.14983e+07
2.1156e+07
2.08139e+07
2.04719e+07
2.01301e+07
1.97885e+07
1.94473e+07
1.91063e+07
1.87658e+07
1.84257e+07
1.80861e+07
1.77471e+07
1.74086e+07
1.70709e+07
1.67338e+07
1.63975e+07
1.60621e+07
1.57275e+07
1.53939e+07
1.50613e+07
1.47299e+07
1.43995e+07
1.40704e+07
1.37426e+07
1.34161e+07
1.30911e+07
1.27676e+07
1.24457e+07
1.21254e+07
1.18069e+07
1.14902e+07
1.11755e+07
1.08627e+07
1.0552e+07
1.02435e+07
9.93732e+06
9.63349e+06
9.33216e+06
9.03344e+06
8.73743e+06
8.44427e+06
8.15408e+06
7.86698e+06
7.58308e+06
7.30245e+06
7.02505e+06
6.75068e+06
5.35467e+07
5.35404e+07
5.35284e+07
5.35107e+07
5.34873e+07
5.34579e+07
5.34227e+07
5.33815e+07
5.33344e+07
5.32814e+07
5.32225e+07
5.31576e+07
5.30869e+07
5.30105e+07
5.29283e+07
5.28404e+07
5.2747e+07
5.2648e+07
5.25437e+07
5.2434e+07
5.2319e+07
5.2199e+07
5.20739e+07
5.19439e+07
5.1809e+07
5.16694e+07
5.15252e+07
5.13764e+07
5.12232e+07
5.10657e+07
5.09039e+07
5.07379e+07
5.05678e+07
5.03937e+07
5.02156e+07
5.00337e+07
4.98481e+07
4.96587e+07
4.94657e+07
4.92692e+07
4.90691e+07
4.88657e+07
4.86588e+07
4.84487e+07
4.82354e+07
4.80189e+07
4.77993e+07
4.75766e+07
4.73509e+07
4.71223e+07
4.68909e+07
4.66566e+07
4.64195e+07
4.61797e+07
4.59372e+07
4.56922e+07
4.54445e+07
4.51943e+07
4.49416e+07
4.46866e+07
4.44291e+07
4.41692e+07
4.39071e+07
4.36427e+07
4.33761e+07
4.31073e+07
4.28364e+07
4.25634e+07
4.22883e+07
4.20112e+07
4.17322e+07
4.14511e+07
4.11682e+07
4.08834e+07
4.05967e+07
4.03082e+07
4.0018e+07
3.9726e+07
3.94323e+07
3.91369e+07
3.88399e+07
3.85412e+07
3.8241e+07
3.79392e+07
3.76359e+07
3.73311e+07
3.70248e+07
3.67171e+07
3.64079e+07
3.60974e+07
3.57855e+07
3.54724e+07
3.51579e+07
3.48421e+07
3.45251e+07
3.42069e+07
3.38875e+07
3.35669e+07
3.32452e+07
3.29224e+07
3.25985e+07
3.22735e+07
3.19476e+07
3.16206e+07
3.12927e+07
3.09638e+07
3.06341e+07
3.03034e+07
2.99719e+07
2.96395e+07
2.93064e+07
2.89725e+07
2.86379e+07
2.83025e+07
2.79665e+07
2.76298e+07
2.72925e+07
2.69547e+07
2.66163e+07
2.62774e+07
2.59379e+07
2.55981e+07
2.52578e+07
2.49172e+07
2.45762e+07
2.42349e+07
2.38934e+07
2.35516e+07
2.32096e+07
2.28675e+07
2.25253e+07
2.2183e+07
2.18406e+07
2.14983e+07
2.11561e+07
2.08139e+07
2.04719e+07
2.01301e+07
1.97886e+07
1.94473e+07
1.91064e+07
1.87658e+07
1.84258e+07
1.80862e+07
1.77471e+07
1.74087e+07
1.70709e+07
1.67338e+07
1.63975e+07
1.60621e+07
1.57275e+07
1.53939e+07
1.50613e+07
1.47299e+07
1.43995e+07
1.40704e+07
1.37426e+07
1.34161e+07
1.30911e+07
1.27676e+07
1.24457e+07
1.21254e+07
1.18069e+07
1.14902e+07
1.11754e+07
1.08626e+07
1.05519e+07
1.02433e+07
9.93708e+06
9.63319e+06
9.33178e+06
9.03295e+06
8.73681e+06
8.44348e+06
8.15307e+06
7.86567e+06
7.58138e+06
7.30022e+06
7.02217e+06
6.74702e+06
5.3761e+07
5.37541e+07
5.37411e+07
5.37221e+07
5.36968e+07
5.36653e+07
5.36276e+07
5.35836e+07
5.35333e+07
5.34768e+07
5.34142e+07
5.33454e+07
5.32705e+07
5.31897e+07
5.31029e+07
5.30104e+07
5.29122e+07
5.28084e+07
5.26991e+07
5.25845e+07
5.24646e+07
5.23396e+07
5.22096e+07
5.20747e+07
5.1935e+07
5.17907e+07
5.16417e+07
5.14884e+07
5.13307e+07
5.11688e+07
5.10027e+07
5.08325e+07
5.06584e+07
5.04804e+07
5.02986e+07
5.0113e+07
4.99238e+07
4.9731e+07
4.95347e+07
4.9335e+07
4.91319e+07
4.89255e+07
4.87158e+07
4.85029e+07
4.8287e+07
4.80679e+07
4.78459e+07
4.76209e+07
4.7393e+07
4.71623e+07
4.69288e+07
4.66925e+07
4.64536e+07
4.6212e+07
4.59678e+07
4.57211e+07
4.54719e+07
4.52203e+07
4.49662e+07
4.47097e+07
4.4451e+07
4.41899e+07
4.39266e+07
4.36612e+07
4.33935e+07
4.31237e+07
4.28519e+07
4.25779e+07
4.2302e+07
4.20241e+07
4.17443e+07
4.14625e+07
4.11789e+07
4.08934e+07
4.06061e+07
4.03171e+07
4.00263e+07
3.97338e+07
3.94396e+07
3.91437e+07
3.88462e+07
3.85472e+07
3.82466e+07
3.79444e+07
3.76407e+07
3.73356e+07
3.7029e+07
3.6721e+07
3.64116e+07
3.61008e+07
3.57887e+07
3.54753e+07
3.51606e+07
3.48447e+07
3.45275e+07
3.42091e+07
3.38895e+07
3.35688e+07
3.3247e+07
3.2924e+07
3.26e+07
3.2275e+07
3.19489e+07
3.16218e+07
3.12938e+07
3.09649e+07
3.0635e+07
3.03043e+07
2.99727e+07