/*--------------------------------*- C++ -*----------------------------------*\
| =========                 |                                                 |
| \\      /  F ield         | OpenFOAM: The Open Source CFD Toolbox           |
|  \\    /   O peration     | Version:  2.1.x                                 |
|   \\  /    A nd           | Web:      www.OpenFOAM.org                      |
|    \\/     M anipulation  |                                                 |
\*---------------------------------------------------------------------------*/
FoamFile
{
    version     2.0;
    format      ascii;
    class       volVectorField;
    location    "0.005";
    object      U;
}
// * * * * * * * * * * * * * * * * * * * * * * * * * * * * * * * * * * * * * //

dimensions      [0 1 -1 0 0 0 0];

internalField   nonuniform List<vector> 
12225
(
(7.11954 0.447276 0)
(4.40208 0.190963 0)
(3.04918 0.0264951 0)
(2.41182 -0.0132242 0)
(2.10561 -0.0115834 0)
(1.95736 -0.00709721 0)
(1.91126 -0.00843128 0)
(1.89089 -0.00557227 0)
(1.85344 0.00291168 0)
(1.81225 -0.00028283 0)
(1.81031 -0.00512588 0)
(1.85397 -0.00756619 0)
(1.88521 -0.00566794 0)
(1.92977 -0.00365142 0)
(1.91913 0.00155512 0)
(1.98803 -0.00901348 0)
(2.0003 0.000118213 0)
(2.20885 -0.0710319 0)
(9.70491 0.978642 0)
(8.96287 0.819839 0)
(7.90017 0.424653 0)
(6.92515 0.219071 0)
(6.19588 0.1203 0)
(5.75414 0.05757 0)
(5.53985 0.0144698 0)
(5.36008 0.0121489 0)
(5.21702 0.0293063 0)
(5.11938 0.0131236 0)
(5.06438 -0.0112883 0)
(5.12542 -0.0224815 0)
(5.12309 -0.0254063 0)
(5.19441 -0.0129551 0)
(5.15963 -0.00503789 0)
(5.29824 -0.0459165 0)
(5.24591 -0.0746532 0)
(5.64149 -0.119926 0)
(10.1573 0.742881 0)
(10.6389 0.875746 0)
(10.5023 0.570139 0)
(9.99482 0.39821 0)
(9.39627 0.299203 0)
(8.93051 0.187203 0)
(8.67717 0.100038 0)
(8.42243 0.0913824 0)
(8.21571 0.095065 0)
(8.06958 0.0444897 0)
(7.90908 -0.0146972 0)
(7.90593 -0.0320112 0)
(7.91618 -0.0227203 0)
(7.93647 -0.0198974 0)
(7.97833 -0.0135289 0)
(8.04025 -0.0561642 0)
(8.03932 -0.147093 0)
(8.2054 -0.295141 0)
(9.97489 0.580386 0)
(10.6454 0.756838 0)
(11.0212 0.550943 0)
(11.1337 0.445971 0)
(11.0334 0.39928 0)
(10.8175 0.27174 0)
(10.6682 0.151976 0)
(10.4847 0.154227 0)
(10.3967 0.183351 0)
(10.3561 0.137258 0)
(10.2015 0.0594364 0)
(10.0587 -0.031866 0)
(10.006 -0.0530144 0)
(10.0015 -0.0398427 0)
(10.1132 -0.0426732 0)
(10.1345 -0.0750902 0)
(10.2455 -0.167112 0)
(10.4202 -0.255966 0)
(10.1585 0.491432 0)
(10.5362 0.718828 0)
(10.8606 0.529826 0)
(11.2104 0.378028 0)
(11.38 0.371443 0)
(11.2701 0.296525 0)
(11.0277 0.198356 0)
(10.8383 0.182615 0)
(10.9711 0.159264 0)
(11.203 0.100345 0)
(11.2795 0.0908894 0)
(11.1938 0.0610257 0)
(11.0796 0.00661737 0)
(11.0708 -0.0568 0)
(11.104 -0.0627272 0)
(11.0771 -0.104835 0)
(11.3312 -0.361936 0)
(11.5449 -0.355741 0)
(10.1193 0.32171 0)
(10.3766 0.573967 0)
(10.6237 0.417685 0)
(10.8736 0.267511 0)
(11.033 0.332378 0)
(11.0518 0.345054 0)
(10.8906 0.26539 0)
(10.8268 0.158671 0)
(10.9751 0.054374 0)
(11.1304 0.014582 0)
(11.2247 0.0645806 0)
(11.3245 0.0574627 0)
(11.3391 -0.0246725 0)
(11.2154 -0.0556349 0)
(11.1553 -0.0537081 0)
(11.3081 -0.232409 0)
(11.4161 -0.467264 0)
(11.2493 -0.164799 0)
(9.96215 0.270071 0)
(10.2551 0.547692 0)
(10.5345 0.438217 0)
(10.6827 0.27312 0)
(10.7816 0.304208 0)
(10.8635 0.344622 0)
(10.8789 0.268641 0)
(10.8975 0.134494 0)
(10.9391 0.0213581 0)
(10.9661 -0.0351425 0)
(11.0006 -0.0264405 0)
(11.0647 0.0140342 0)
(11.0537 0.0634781 0)
(11.0382 0.0421751 0)
(11.0874 -0.110375 0)
(11.0939 -0.274868 0)
(10.9664 -0.346344 0)
(10.9051 -0.135601 0)
(9.59301 0.218051 0)
(10.0368 0.406646 0)
(10.4487 0.33113 0)
(10.6503 0.229538 0)
(10.7236 0.264239 0)
(10.8164 0.284488 0)
(10.8831 0.215987 0)
(10.9107 0.1253 0)
(10.9206 0.0376416 0)
(10.905 -0.00522019 0)
(10.8531 0.0181116 0)
(10.8513 0.0299544 0)
(10.8649 -0.0284807 0)
(10.9105 -0.0771901 0)
(10.9297 -0.0996789 0)
(10.8999 -0.173846 0)
(10.824 -0.343398 0)
(10.9201 -0.229064 0)
(9.67193 0.0477155 0)
(10.0491 0.1986 0)
(10.4222 0.238634 0)
(10.5687 0.235942 0)
(10.5911 0.291473 0)
(10.6412 0.294482 0)
(10.6636 0.209469 0)
(10.6895 0.0987703 0)
(10.7266 0.00729253 0)
(10.7601 -0.0293401 0)
(10.7663 -0.0131234 0)
(10.8212 0.0251467 0)
(10.8493 0.0220658 0)
(10.8041 -0.00817501 0)
(10.748 -0.0766557 0)
(10.7719 -0.217116 0)
(10.8042 -0.407261 0)
(10.8592 -0.275264 0)
(10.1186 0.116638 0)
(10.1016 0.154198 0)
(10.1574 0.175809 0)
(10.2057 0.19387 0)
(10.3028 0.248263 0)
(10.4632 0.243738 0)
(10.5793 0.171311 0)
(10.6325 0.094272 0)
(10.6471 0.01842 0)
(10.6353 -0.0213317 0)
(10.6151 -0.00158501 0)
(10.6334 0.000877866 0)
(10.6846 -0.0339653 0)
(10.7257 -0.0440889 0)
(10.7913 -0.0865506 0)
(10.841 -0.218429 0)
(10.7489 -0.401192 0)
(10.6435 -0.285221 0)
(10.071 0.0268619 0)
(10.1561 0.162756 0)
(10.135 0.203405 0)
(10.0773 0.199321 0)
(10.1169 0.220833 0)
(10.2471 0.197052 0)
(10.3837 0.116031 0)
(10.4886 0.0385073 0)
(10.5546 -0.0148942 0)
(10.604 -0.0450902 0)
(10.6527 -0.0362271 0)
(10.715 -0.00695983 0)
(10.785 -0.0296385 0)
(10.8442 -0.0906968 0)
(10.9124 -0.132855 0)
(10.9743 -0.176001 0)
(10.9093 -0.299529 0)
(10.8465 -0.309363 0)
(10.1238 0.0882188 0)
(10.1257 0.154378 0)
(10.0396 0.196423 0)
(9.96818 0.199855 0)
(10.0515 0.185961 0)
(10.2157 0.126157 0)
(10.3678 0.0473245 0)
(10.4601 -0.0142232 0)
(10.5029 -0.0554153 0)
(10.5249 -0.0809172 0)
(10.5421 -0.0990575 0)
(10.5523 -0.097226 0)
(10.5876 -0.118408 0)
(10.6275 -0.151067 0)
(10.6283 -0.187558 0)
(10.6257 -0.204572 0)
(10.5815 -0.30174 0)
(10.6391 -0.578218 0)
(10.052 0.0469358 0)
(9.9947 0.302375 0)
(9.97315 0.28448 0)
(9.98396 0.198067 0)
(10.0645 0.107058 0)
(10.1736 0.0273781 0)
(10.2779 -0.0274309 0)
(10.3521 -0.0643264 0)
(10.3876 -0.0878883 0)
(10.4079 -0.0895236 0)
(10.4122 -0.0870937 0)
(10.3893 -0.0681337 0)
(10.3851 -0.0788843 0)
(10.4116 -0.130442 0)
(10.4205 -0.145309 0)
(10.4724 -0.118667 0)
(10.5641 -0.351636 0)
(10.5324 -0.839068 0)
(9.70866 0.148483 0)
(9.90858 0.187389 0)
(10.0658 0.118736 0)
(10.1942 0.0933748 0)
(10.2506 0.0694273 0)
(10.2639 0.00891271 0)
(10.255 -0.0604212 0)
(10.2571 -0.0960737 0)
(10.2589 -0.101961 0)
(10.2727 -0.0887887 0)
(10.3041 -0.0947383 0)
(10.3473 -0.119574 0)
(10.4017 -0.143353 0)
(10.4603 -0.189925 0)
(10.5047 -0.261563 0)
(10.6004 -0.360277 0)
(10.6488 -0.3703 0)
(10.3687 -0.22482 0)
(10.0166 0.115084 0)
(10.0973 0.0441645 0)
(10.0631 0.0581575 0)
(10.1066 0.0648853 0)
(10.1765 0.0676688 0)
(10.2366 0.0467987 0)
(10.2491 0.00231967 0)
(10.2685 -0.0479731 0)
(10.2917 -0.101612 0)
(10.3247 -0.146552 0)
(10.3697 -0.178157 0)
(10.3941 -0.209632 0)
(10.406 -0.228976 0)
(10.4205 -0.259569 0)
(10.4194 -0.314726 0)
(10.3937 -0.257306 0)
(10.3807 0.00841313 0)
(10.4471 -0.449596 0)
(9.94161 -0.0578064 0)
(9.90727 0.0555225 0)
(9.97255 0.0633941 0)
(10.0624 -0.0191184 0)
(10.1179 -0.0646309 0)
(10.1474 -0.077838 0)
(10.1574 -0.098041 0)
(10.1691 -0.128391 0)
(10.1755 -0.154631 0)
(10.1593 -0.170802 0)
(10.1375 -0.169841 0)
(10.118 -0.180755 0)
(10.1213 -0.198478 0)
(10.1365 -0.220994 0)
(10.1473 -0.244925 0)
(10.1563 -0.337777 0)
(10.2557 -0.509608 0)
(10.4496 -0.154352 0)
(10.007 -0.0334291 0)
(10.0154 0.0238156 0)
(10.0057 -0.017495 0)
(10.0505 -0.0470646 0)
(10.0889 -0.0292375 0)
(10.1141 -0.00438328 0)
(10.1277 -0.00510619 0)
(10.1185 -0.0326269 0)
(10.1143 -0.0628222 0)
(10.0944 -0.095345 0)
(10.0918 -0.129727 0)
(10.1004 -0.186734 0)
(10.1395 -0.256557 0)
(10.1851 -0.320391 0)
(10.2117 -0.383679 0)
(10.2319 -0.452814 0)
(10.2147 -0.477175 0)
(10.1984 -0.463829 0)
(9.75532 0.0206022 0)
(9.8014 0.0237472 0)
(9.81535 -0.0497607 0)
(9.84406 -0.154656 0)
(9.91366 -0.188557 0)
(10.0067 -0.14865 0)
(10.0951 -0.0906883 0)
(10.1604 -0.0759168 0)
(10.2189 -0.105467 0)
(10.2377 -0.15812 0)
(10.222 -0.21624 0)
(10.187 -0.270291 0)
(10.169 -0.322397 0)
(10.1649 -0.370048 0)
(10.1427 -0.406673 0)
(10.1101 -0.41025 0)
(10.084 -0.420863 0)
(10.0763 -0.5248 0)
(10.151 -0.0867495 0)
(10.1891 -0.041883 0)
(10.1389 -0.0599178 0)
(10.0853 -0.120071 0)
(10.079 -0.205409 0)
(10.1301 -0.257206 0)
(10.1849 -0.234498 0)
(10.2366 -0.175949 0)
(10.2959 -0.120243 0)
(10.3382 -0.0926453 0)
(10.3396 -0.0986608 0)
(10.313 -0.127506 0)
(10.2976 -0.179049 0)
(10.3001 -0.241486 0)
(10.2884 -0.301402 0)
(10.2508 -0.361738 0)
(10.2166 -0.405235 0)
(10.1955 -0.404944 0)
(9.74617 0.0712329 0)
(9.85431 -0.0331085 0)
(9.97524 -0.0430473 0)
(10.107 -0.114462 0)
(10.1628 -0.211715 0)
(10.1813 -0.283113 0)
(10.1829 -0.281315 0)
(10.1878 -0.232477 0)
(10.2296 -0.187621 0)
(10.2938 -0.179236 0)
(10.3556 -0.20307 0)
(10.3871 -0.242801 0)
(10.4159 -0.2827 0)
(10.4384 -0.322008 0)
(10.4432 -0.347493 0)
(10.421 -0.355238 0)
(10.3889 -0.350537 0)
(10.3632 -0.353229 0)
(10.0122 0.0497629 0)
(10.0125 -0.241063 0)
(10.0459 -0.293486 0)
(10.1198 -0.264291 0)
(10.2012 -0.244112 0)
(10.2507 -0.238821 0)
(10.2709 -0.236191 0)
(10.2686 -0.227838 0)
(10.2759 -0.223303 0)
(10.2898 -0.234874 0)
(10.306 -0.250888 0)
(10.2991 -0.263489 0)
(10.2941 -0.268617 0)
(10.297 -0.272243 0)
(10.3036 -0.275318 0)
(10.3033 -0.280015 0)
(10.2993 -0.286687 0)
(10.3007 -0.297993 0)
(9.89613 0.136763 0)
(9.98197 -0.0782403 0)
(10.029 -0.244686 0)
(10.0634 -0.308842 0)
(10.1076 -0.335612 0)
(10.1693 -0.326471 0)
(10.227 -0.288688 0)
(10.2628 -0.234817 0)
(10.2952 -0.194661 0)
(10.3259 -0.190239 0)
(10.3613 -0.216053 0)
(10.379 -0.25827 0)
(10.3918 -0.297769 0)
(10.4032 -0.329801 0)
(10.4085 -0.349683 0)
(10.3987 -0.358324 0)
(10.3781 -0.354318 0)
(10.3579 -0.346872 0)
(10.011 -0.0410347 0)
(10.1015 -0.254796 0)
(10.25 -0.333187 0)
(10.3908 -0.347174 0)
(10.4907 -0.330156 0)
(10.5509 -0.298934 0)
(10.5896 -0.277287 0)
(10.6173 -0.271894 0)
(10.6428 -0.288767 0)
(10.6562 -0.317005 0)
(10.6696 -0.339402 0)
(10.6618 -0.345601 0)
(10.6459 -0.327491 0)
(10.6224 -0.298204 0)
(10.59 -0.267477 0)
(10.5451 -0.24506 0)
(10.4924 -0.232658 0)
(10.4396 -0.234853 0)
(10.1099 -0.077383 0)
(10.1936 -0.316219 0)
(10.2582 -0.456852 0)
(10.3006 -0.456905 0)
(10.3752 -0.415995 0)
(10.4757 -0.369341 0)
(10.5724 -0.321782 0)
(10.6377 -0.271392 0)
(10.6566 -0.235181 0)
(10.6284 -0.220331 0)
(10.5751 -0.229825 0)
(10.5095 -0.248498 0)
(10.4636 -0.258255 0)
(10.4463 -0.259084 0)
(10.458 -0.249243 0)
(10.4798 -0.240389 0)
(10.5068 -0.234594 0)
(10.5356 -0.2377 0)
(10.21 -0.305126 0)
(10.3915 -0.400988 0)
(10.5574 -0.401433 0)
(10.6643 -0.392428 0)
(10.7226 -0.388707 0)
(10.7367 -0.386242 0)
(10.7233 -0.373057 0)
(10.7127 -0.33833 0)
(10.7186 -0.304027 0)
(10.7378 -0.278996 0)
(10.7573 -0.270614 0)
(10.7637 -0.273474 0)
(10.7583 -0.275369 0)
(10.7439 -0.278075 0)
(10.7292 -0.280797 0)
(10.7111 -0.287124 0)
(10.6939 -0.291899 0)
(10.6813 -0.297773 0)
(9.79468 -0.247322 0)
(9.99211 -0.543792 0)
(10.3329 -0.587878 0)
(10.6457 -0.506049 0)
(10.8405 -0.417473 0)
(10.9205 -0.36632 0)
(10.9318 -0.333388 0)
(10.925 -0.297845 0)
(10.9201 -0.273345 0)
(10.9198 -0.259921 0)
(10.9199 -0.256599 0)
(10.9119 -0.255391 0)
(10.8952 -0.247045 0)
(10.8715 -0.237593 0)
(10.8441 -0.231882 0)
(10.8142 -0.23449 0)
(10.7812 -0.239833 0)
(10.7476 -0.248692 0)
(9.87701 -0.354341 0)
(10.4165 -0.67787 0)
(10.8076 -0.679315 0)
(11.0541 -0.566027 0)
(11.1544 -0.475503 0)
(11.1272 -0.421133 0)
(11.0318 -0.38392 0)
(10.9235 -0.346249 0)
(10.8289 -0.31409 0)
(10.7485 -0.287628 0)
(10.6785 -0.26951 0)
(10.6079 -0.254882 0)
(10.5399 -0.240887 0)
(10.4699 -0.23154 0)
(10.4048 -0.229237 0)
(10.3331 -0.234447 0)
(10.2592 -0.2409 0)
(10.1728 -0.243504 0)
(9.85999 -0.498999 0)
(10.4203 -0.912642 0)
(10.6897 -0.792319 0)
(10.655 -0.590418 0)
(10.4554 -0.443392 0)
(10.1975 -0.344137 0)
(9.92621 -0.280517 0)
(9.67111 -0.238519 0)
(9.43741 -0.213576 0)
(9.23204 -0.198514 0)
(9.04816 -0.1914 0)
(8.87648 -0.181516 0)
(8.71906 -0.170557 0)
(8.56242 -0.157129 0)
(8.41946 -0.150342 0)
(8.27172 -0.147384 0)
(8.13807 -0.147353 0)
(7.99697 -0.143133 0)
(10.1412 -0.794212 0)
(9.91851 -1.07595 0)
(9.28697 -0.804187 0)
(8.53691 -0.532375 0)
(7.84253 -0.348894 0)
(7.27928 -0.227015 0)
(6.83414 -0.152631 0)
(6.48399 -0.108834 0)
(6.19308 -0.0858985 0)
(5.95022 -0.0748138 0)
(5.7325 -0.068115 0)
(5.54629 -0.0611293 0)
(5.37802 -0.0552725 0)
(5.23466 -0.0491547 0)
(5.10485 -0.051591 0)
(4.98096 -0.0521018 0)
(4.86818 -0.06158 0)
(4.73982 -0.0612544 0)
(8.88373 -0.376383 0)
(6.27018 -0.371911 0)
(4.39528 -0.14243 0)
(3.29213 -0.0206553 0)
(2.69525 0.0214478 0)
(2.37291 0.0338593 0)
(2.18867 0.0310042 0)
(2.07275 0.0233445 0)
(1.98595 0.0156646 0)
(1.91298 0.00980634 0)
(1.8419 0.0053593 0)
(1.7765 0.00200322 0)
(1.71244 3.90572e-05 0)
(1.65981 -0.00087193 0)
(1.60309 -0.00232436 0)
(1.55623 -0.00259881 0)
(1.49147 -0.0109189 0)
(1.42717 0.00342421 0)
(-0.0546082 0.116808 0)
(-0.165936 0.118487 0)
(-0.275453 0.116963 0)
(-0.386714 0.115766 0)
(-0.496608 0.113987 0)
(-0.605976 0.111689 0)
(-0.713306 0.108854 -3.78936e-20)
(-0.818468 0.105382 3.76014e-20)
(-0.920694 0.101349 0)
(-1.01939 0.0967767 3.70127e-20)
(-1.11345 0.0916024 0)
(-1.20209 0.085706 0)
(-1.28497 0.0791455 0)
(-1.36094 0.0719518 -3.58057e-20)
(-1.42913 0.0640664 0)
(-1.48841 0.0555008 0)
(-1.53828 0.046261 3.4859e-20)
(-1.57765 0.0365263 0)
(-1.60579 0.0261331 0)
(-1.62222 0.0154498 0)
(-1.62598 0.00434663 -3.352e-20)
(-1.61624 -0.00675926 0)
(-1.59273 -0.0179165 -3.28147e-20)
(-1.55567 -0.0290872 0)
(-1.50488 -0.0398436 0)
(-1.44081 -0.0500715 -3.1719e-20)
(-1.36367 -0.0596406 0)
(-1.27427 -0.0685076 3.09727e-20)
(-1.17351 -0.0763863 0)
(-1.06216 -0.0832179 -3.02231e-20)
(-0.941471 -0.0889618 0)
(-0.812527 -0.0935515 0)
(-0.676547 -0.0969523 0)
(-0.534789 -0.0991859 0)
(-0.388541 -0.100296 0)
(-0.239052 -0.10033 2.80387e-20)
(-0.0875168 -0.0994002 0)
(0.0645917 -0.0976075 -5.47093e-20)
(0.216308 -0.0948911 0)
(0.366849 -0.0914565 5.33947e-20)
(0.515111 -0.0874074 0)
(0.660283 -0.0828469 0)
(0.801633 -0.077872 -5.15307e-20)
(0.938499 -0.0725781 0)
(1.07034 -0.0670608 -5.03575e-20)
(1.19674 -0.0614105 4.97906e-20)
(1.31736 -0.0557073 0)
(1.43193 -0.0500213 4.86931e-20)
(1.54025 -0.0444176 4.81614e-20)
(1.64222 -0.038955 0)
(1.73783 -0.0336787 0)
(1.82707 -0.028623 0)
(1.91001 -0.0238196 0)
(1.98674 -0.019299 0)
(2.05746 -0.0150806 -4.51705e-20)
(2.12234 -0.0111681 0)
(2.18158 -0.00756209 4.42362e-20)
(2.23539 -0.00426873 0)
(2.28405 -0.00129177 0)
(2.32783 0.00137959 -4.28806e-20)
(2.36698 0.00376427 0)
(2.40177 0.00587462 4.20031e-20)
(2.43245 0.00771713 0)
(2.45933 0.00930639 0)
(2.48266 0.0106669 0)
(2.5027 0.0118189 -4.03009e-20)
(2.51968 0.0127769 0)
(2.53385 0.0135523 0)
(2.54547 0.0141689 -3.90634e-20)
(2.55472 0.0146483 0)
(2.56181 0.01499 -3.82546e-20)
(2.56695 0.015216 0)
(2.57034 0.0153465 0)
(2.57213 0.0153216 0)
(2.57248 0.0151631 3.66718e-20)
(2.57151 0.0149449 0)
(2.56938 0.0146983 0)
(2.56621 0.0144325 3.55127e-20)
(2.56212 0.0141516 3.51313e-20)
(2.55719 0.0138549 0)
(2.5515 0.013547 3.43757e-20)
(2.54516 0.0132311 0)
(2.53823 0.0129173 6.72592e-20)
(2.53076 0.0126082 0)
(2.52284 0.0122804 6.57855e-20)
(2.51448 0.0119799 0)
(2.50572 0.0117031 -6.43299e-20)
(2.49662 0.0114369 0)
(2.48721 0.011173 0)
(2.47755 0.0109072 0)
(2.46768 0.0106427 6.14723e-20)
(2.45762 0.0103854 0)
(2.44738 0.010136 -6.007e-20)
(2.43699 0.00989136 0)
(2.42647 0.00964949 5.8685e-20)
(2.41584 0.00941041 5.79991e-20)
(2.40511 0.00917653 5.73174e-20)
(2.39431 0.0089493 0)
(2.38342 0.00872869 0)
(2.37248 0.00851311 0)
(2.3615 0.00830265 0)
(2.35048 0.00809972 0)
(2.33943 0.00790536 0)
(2.32836 0.00771739 0)
(2.31727 0.00753299 0)
(2.30616 0.0073519 -5.13732e-20)
(2.29506 0.0071766 -5.07337e-20)
(2.28396 0.00700928 0)
(2.27286 0.00684906 0)
(2.26176 0.00669283 0)
(2.25066 0.00653837 -4.82162e-20)
(2.23958 0.00638643 0)
(2.22852 0.00623964 0)
(2.21749 0.00609945 0)
(2.20646 0.00596457 0)
(2.19546 0.00583248 4.51596e-20)
(2.18448 0.00570176 0)
(2.17352 0.00557278 0)
(2.16259 0.00544707 -4.33725e-20)
(2.15169 0.0053258 4.27845e-20)
(2.14082 0.00520872 0)
(2.12998 0.00509467 4.16198e-20)
(2.11917 0.00498245 0)
(2.10839 0.00487141 -4.04701e-20)
(2.09765 0.00476157 0)
(2.08694 0.00465363 0)
(2.07627 0.00454857 0)
(2.06563 0.00444701 0)
(2.05503 0.00434865 0)
(2.04447 0.00425236 7.4216e-20)
(2.03393 0.00415677 7.31202e-20)
(2.02344 0.00406122 0)
(2.01298 0.00396631 0)
(2.00257 0.00387343 0)
(1.9922 0.00378372 -6.88054e-20)
(1.98186 0.00369704 0)
(1.97156 0.00361208 0)
(1.9613 0.0035272 0)
(1.95108 0.00344175 -6.45976e-20)
(1.9409 0.00335662 6.35619e-20)
(1.93076 0.00327348 0)
(1.92067 0.00319343 0)
(1.91062 0.00311597 6.04926e-20)
(1.90061 0.00303967 5.9482e-20)
(1.89063 0.00296346 0)
(1.8807 0.00288718 0)
(1.8708 0.00281149 -5.64865e-20)
(1.86096 0.00273751 5.54999e-20)
(1.85116 0.0026661 0)
(1.84139 0.00259718 0)
(1.83166 0.00252988 5.25749e-20)
(1.82197 0.00246343 0)
(1.81231 0.00239774 0)
(1.80268 0.00233328 4.97009e-20)
(1.79308 0.0022705 0)
(1.78351 0.00221004 4.78122e-20)
(1.77396 0.00215241 0)
(1.76442 0.00209817 0)
(1.75489 0.00204766 0)
(1.74534 0.00200046 -4.40979e-20)
(1.73576 0.00195924 0)
(1.72615 0.00191801 0)
(1.71643 0.00189562 0)
(1.70669 0.00185184 0)
(1.69661 0.0018858 0)
(1.68675 0.00178751 0)
(1.67569 0.00200933 -3.77864e-20)
(1.66615 0.00166087 -3.69017e-20)
(1.65237 0.00241525 0)
(1.64485 0.00140192 0)
(1.62439 0.00318177 0)
(1.62219 0.00126031 3.34016e-20)
(1.58932 0.00404996 0)
(1.59375 0.00219853 -6.334e-20)
(1.54556 0.00447511 6.16202e-20)
(1.54879 0.00522498 5.98891e-20)
(1.48784 0.00638547 -5.81687e-20)
(1.46201 0.0081256 5.6432e-20)
(1.41446 0.0217906 -5.47022e-20)
(1.22176 -0.004243 0)
(-0.0529873 0.350309 0)
(-0.16858 0.357488 0)
(-0.279663 0.352154 7.81898e-20)
(-0.393112 0.348743 0)
(-0.5054 0.343512 -7.70343e-20)
(-0.617098 0.336666 -7.64557e-20)
(-0.727111 0.328036 -3.79768e-20)
(-0.835042 0.31749 -3.76081e-20)
(-0.939802 0.304984 0)
(-1.04105 0.290378 -3.70215e-20)
(-1.1378 0.273724 0)
(-1.22895 0.254709 0)
(-1.31388 0.233407 7.23347e-20)
(-1.39151 0.209834 3.58187e-20)
(-1.46092 0.183887 -7.11063e-20)
(-1.52077 0.155656 -7.0478e-20)
(-1.57029 0.125272 -3.48745e-20)
(-1.60863 0.0930787 0)
(-1.63471 0.0589882 0)
(-1.64804 0.0236165 0)
(-1.64751 -0.012919 -3.36223e-20)
(-1.63215 -0.0498891 0)
(-1.60246 -0.0872246 9.85732e-20)
(-1.55785 -0.124246 0)
(-1.49788 -0.160196 0)
(-1.42361 -0.194777 3.17353e-20)
(-1.3353 -0.227316 0)
(-1.23352 -0.257615 -3.09888e-20)
(-1.11911 -0.285074 -6.12747e-20)
(-0.993104 -0.309558 3.02392e-20)
(-0.856744 -0.330667 0)
(-0.711094 -0.348404 0)
(-0.557403 -0.362692 0)
(-0.396947 -0.373557 -5.75538e-20)
(-0.230951 -0.381107 -5.68353e-20)
(-0.0606902 -0.385452 -2.80567e-20)
(0.112617 -0.386858 0)
(0.287856 -0.385588 5.47477e-20)
(0.464 -0.381699 0)
(0.640095 -0.375565 -5.34361e-20)
(0.815246 -0.367455 0)
(0.988679 -0.357636 0)
(1.1597 -0.346362 5.15769e-20)
(1.32768 -0.333886 0)
(1.49208 -0.320452 1.51229e-19)
(1.65247 -0.306288 -4.98419e-20)
(1.80851 -0.291596 0)
(1.95989 -0.276557 -4.87477e-20)
(2.10635 -0.261336 -4.82175e-20)
(2.24772 -0.246088 0)
(2.38389 -0.230948 0)
(2.5148 -0.216021 0)
(2.64038 -0.201399 0)
(2.7606 -0.187164 0)
(2.8755 -0.173389 4.52336e-20)
(2.98517 -0.160125 8.95364e-20)
(3.08964 -0.147409 -4.43008e-20)
(3.189 -0.135271 0)
(3.28335 -0.123739 8.67935e-20)
(3.37283 -0.112829 -4.29551e-20)
(3.45758 -0.10254 0)
(3.53772 -0.0928672 -4.20694e-20)
(3.61338 -0.0838088 0)
(3.68474 -0.0753585 0)
(3.75196 -0.0674995 -8.15811e-20)
(3.81519 -0.0602037 4.03669e-20)
(3.87458 -0.0534568 -7.99086e-20)
(3.93032 -0.0472294 7.90828e-20)
(3.98253 -0.0415025 3.91284e-20)
(4.03142 -0.0362562 0)
(4.0771 -0.0314398 3.83188e-20)
(4.11973 -0.0270595 0)
(4.15952 -0.0230729 0)
(4.19652 -0.0194461 0)
(4.2309 -0.0161784 3.67385e-20)
(4.26284 -0.0132282 0)
(4.29246 -0.0105621 7.19184e-20)
(4.31986 -0.008148 -1.06722e-19)
(4.34517 -0.00597131 -3.51904e-20)
(4.36851 -0.00400633 0)
(4.38999 -0.00223948 -3.44334e-20)
(4.40971 -0.000654408 0)
(4.4278 0.000780571 -6.73716e-20)
(4.44432 0.00205789 0)
(4.4594 0.00322054 -6.5895e-20)
(4.47313 0.00423056 1.30331e-19)
(4.48554 0.00510281 6.44365e-20)
(4.49672 0.00587028 0)
(4.50675 0.00655693 0)
(4.51569 0.00717155 0)
(4.52364 0.00770715 -6.15734e-20)
(4.53064 0.00817527 0)
(4.53675 0.0085971 6.01684e-20)
(4.54202 0.0089616 0)
(4.5465 0.0092754 -1.76345e-19)
(4.55024 0.00955569 -5.80937e-20)
(4.55329 0.00980217 -5.74107e-20)
(4.55568 0.0100062 0)
(4.55746 0.010174 0)
(4.55865 0.010312 0)
(4.5593 0.0104226 0)
(4.55944 0.0105102 0)
(4.5591 0.0105792 -1.06807e-19)
(4.55831 0.0106312 -1.055e-19)
(4.55708 0.0106659 0)
(4.55545 0.0106837 5.1456e-20)
(4.55344 0.0106873 5.08154e-20)
(4.55107 0.0106805 0)
(4.54836 0.0106658 9.90931e-20)
(4.54533 0.0106425 0)
(4.54199 0.0106087 -4.82939e-20)
(4.53837 0.0105643 0)
(4.53448 0.0105121 0)
(4.53033 0.0104557 9.28896e-20)
(4.52593 0.0103964 0)
(4.5213 0.0103327 -4.5232e-20)
(4.51645 0.0102631 0)
(4.51139 0.0101873 0)
(4.50613 0.0101073 -4.3442e-20)
(4.50068 0.0100254 -4.28531e-20)
(4.49505 0.00994268 0)
(4.48924 0.00985849 4.16864e-20)
(4.48326 0.0097718 0)
(4.47711 0.00968207 -4.05348e-20)
(4.47082 0.0095893 -7.99293e-20)
(4.46437 0.0094943 0)
(4.45779 0.00939855 0)
(4.45106 0.00930336 0)
(4.4442 0.00920926 0)
(4.43721 0.00911562 -7.43356e-20)
(4.43009 0.00902102 -2.19714e-19)
(4.42285 0.00892429 0)
(4.41549 0.00882557 0)
(4.40801 0.00872641 0)
(4.40042 0.00862868 6.89167e-20)
(4.39271 0.00853323 0)
(4.3849 0.00843927 0)
(4.37697 0.00834485 -1.31492e-19)
(4.36893 0.00824833 -6.47018e-20)
(4.36079 0.00814971 -6.36653e-20)
(4.35255 0.00805102 0)
(4.34421 0.00795463 0)
(4.33577 0.00786109 -6.05915e-20)
(4.32722 0.00776908 5.95786e-20)
(4.31857 0.00767682 0)
(4.30982 0.00758332 0)
(4.30097 0.007489 5.65794e-20)
(4.29203 0.00739541 -1.66773e-19)
(4.28299 0.00730459 0)
(4.27384 0.00721744 0)
(4.2646 0.00713308 -5.2662e-20)
(4.25524 0.0070507 0)
(4.24579 0.0069699 -1.01474e-19)
(4.23622 0.0068911 4.97829e-20)
(4.22654 0.00681589 0)
(4.21675 0.00674575 -4.78921e-20)
(4.20683 0.00668173 -9.39079e-20)
(4.19678 0.00662681 0)
(4.18658 0.00658177 0)
(4.17623 0.00654933 4.41722e-20)
(4.16569 0.00653476 0)
(4.15499 0.00653141 -8.46846e-20)
(4.14392 0.00657295 0)
(4.13293 0.00659177 0)
(4.12078 0.00678106 0)
(4.11011 0.00672011 0)
(4.09495 0.00739323 3.7851e-20)
(4.08727 0.00677071 3.69649e-20)
(4.06359 0.00897962 0)
(4.06571 0.00635337 0)
(4.02331 0.0124525 0)
(4.04329 0.00538125 -3.34591e-20)
(3.97613 0.018361 0)
(4.00596 0.00523646 6.34489e-20)
(3.93174 0.0275165 -6.17251e-20)
(3.93228 0.0072811 -5.99912e-20)
(3.88613 0.0458749 -5.82773e-20)
(3.80612 0.0117001 -5.65257e-20)
(3.81437 0.0874345 -5.48273e-20)
(3.56711 0.0395926 0)
(-0.0515186 0.585175 0)
(-0.172181 0.603115 0)
(-0.2871 0.593994 -7.81893e-20)
(-0.404993 0.588543 -7.77398e-20)
(-0.521799 0.58016 7.70352e-20)
(-0.6383 0.569051 7.64572e-20)
(-0.75337 0.554976 -1.31462e-22)
(-0.866594 0.537753 0)
(-0.97717 0.517263 0)
(-1.08423 0.493113 0)
(-1.18692 0.465356 0)
(-1.28436 0.433653 0)
(-1.37549 0.397908 -2.17314e-19)
(-1.45941 0.358131 0)
(-1.53499 0.314289 7.11113e-20)
(-1.60064 0.266406 7.04828e-20)
(-1.6555 0.214621 0)
(-1.69865 0.159614 0)
(-1.729 0.101456 0)
(-1.7457 0.0407894 0)
(-1.74756 -0.0216621 6.71634e-20)
(-1.73388 -0.0853447 0)
(-1.70443 -0.149254 -6.57461e-20)
(-1.65842 -0.212419 0)
(-1.59628 -0.273885 0)
(-1.5187 -0.33314 0)
(-1.42591 -0.388594 -1.25786e-19)
(-1.319 -0.440111 0)
(-1.1989 -0.486848 6.12796e-20)
(-1.06667 -0.528248 -1.21198e-19)
(-0.92378 -0.564002 0)
(-0.771741 -0.59397 0)
(-0.611753 -0.618116 0)
(-0.445257 -0.636515 5.75601e-20)
(-0.273573 -0.649356 5.68419e-20)
(-0.0980879 -0.656871 0)
(0.0798706 -0.659509 0)
(0.259289 -0.657684 -1.09576e-19)
(0.439161 -0.651769 -1.08241e-19)
(0.618479 -0.642226 1.06938e-19)
(0.79641 -0.629519 0)
(0.97225 -0.614101 0)
(1.14537 -0.596408 0)
(1.31521 -0.576856 0)
(1.48131 -0.555832 -1.00846e-19)
(1.64333 -0.533691 -9.97373e-20)
(1.801 -0.510754 9.86321e-20)
(1.95411 -0.487312 0)
(2.10245 -0.463622 0)
(2.24593 -0.439906 0)
(2.3845 -0.416349 0)
(2.51815 -0.393113 -9.34344e-20)
(2.64686 -0.370338 0)
(2.77063 -0.34814 0)
(2.88955 -0.326608 -9.05319e-20)
(3.00368 -0.305811 -8.95755e-20)
(3.11312 -0.285801 0)
(3.21792 -0.266622 1.75509e-19)
(3.3182 -0.248303 -8.68358e-20)
(3.41409 -0.230859 8.59448e-20)
(3.5057 -0.214294 0)
(3.59314 -0.198605 0)
(3.67653 -0.183781 0)
(3.75599 -0.169811 0)
(3.83167 -0.156673 8.16279e-20)
(3.90369 -0.144342 1.61604e-19)
(3.97217 -0.132788 7.99565e-20)
(4.03723 -0.121983 -7.91312e-20)
(4.09901 -0.111891 0)
(4.15764 -0.102488 1.55021e-19)
(4.21323 -0.0937375 1.53406e-19)
(4.2659 -0.0855892 1.51803e-19)
(4.31579 -0.0780361 -1.50211e-19)
(4.36299 -0.0710199 0)
(4.40764 -0.0644951 -2.20583e-19)
(4.44983 -0.0584406 0)
(4.4897 -0.0528389 7.19826e-20)
(4.52733 -0.0476479 7.11991e-20)
(4.56283 -0.0428497 0)
(4.5963 -0.0384132 0)
(4.62783 -0.0343097 1.37851e-19)
(4.65754 -0.0305227 0)
(4.6855 -0.0270112 1.34857e-19)
(4.71182 -0.0237882 0)
(4.73656 -0.0208068 -1.31901e-19)
(4.75976 -0.0180886 -2.60866e-19)
(4.78157 -0.0156228 0)
(4.80207 -0.0133627 0)
(4.8213 -0.0112788 0)
(4.83932 -0.00936019 -1.24669e-19)
(4.85619 -0.00759327 0)
(4.87201 -0.00597138 -1.21838e-19)
(4.88681 -0.00448474 0)
(4.90064 -0.00311435 0)
(4.91357 -0.00186565 2.35313e-19)
(4.92566 -0.000729058 0)
(4.93693 0.000328259 1.14915e-19)
(4.94743 0.00129856 0)
(4.95722 0.00218545 1.12207e-19)
(4.96633 0.00299505 0)
(4.97481 0.00373216 0)
(4.98269 0.0044045 0)
(4.99 0.0050189 3.20674e-19)
(4.99679 0.00557859 1.05582e-19)
(5.00307 0.00608584 0)
(5.00888 0.00654396 0)
(5.01425 0.00695763 0)
(5.01921 0.00733194 0)
(5.02378 0.00767064 -9.91705e-20)
(5.02797 0.00797555 1.95828e-19)
(5.03182 0.00824734 9.66631e-20)
(5.03535 0.00848783 -1.90845e-19)
(5.03857 0.00870061 -1.88378e-19)
(5.04151 0.00888965 -9.29625e-20)
(5.04418 0.00905706 0)
(5.04659 0.0092031 -1.81072e-19)
(5.04876 0.00932828 0)
(5.05071 0.00943423 1.76279e-19)
(5.05245 0.00952366 8.69526e-20)
(5.054 0.00959935 0)
(5.05536 0.00966257 -1.69206e-19)
(5.05654 0.00971311 -8.34391e-20)
(5.05755 0.00975084 0)
(5.05841 0.00977639 -8.11348e-20)
(5.05912 0.00979103 2.39979e-19)
(5.0597 0.00979655 0)
(5.06014 0.00979474 0)
(5.06046 0.00978669 0)
(5.06066 0.00977287 0)
(5.06076 0.00975306 1.4879e-19)
(5.06074 0.0097267 1.46593e-19)
(5.06062 0.00969377 0)
(5.06041 0.00965524 0)
(5.0601 0.0096129 0)
(5.05971 0.00956835 0)
(5.05924 0.00952221 0)
(5.05868 0.00947392 0)
(5.05804 0.00942208 1.31598e-19)
(5.05732 0.00936569 -1.44736e-25)
(5.05653 0.00930536 0)
(5.05567 0.00924341 0)
(5.05473 0.00918205 1.2332e-19)
(5.05373 0.00912148 0)
(5.05267 0.0090602 -1.19256e-19)
(5.05153 0.00899678 -1.17242e-19)
(5.05032 0.00893086 0)
(5.04905 0.00886349 0)
(5.04771 0.00879674 1.11274e-19)
(5.0463 0.0087328 2.18616e-19)
(5.04483 0.00867218 0)
(5.04329 0.00861365 0)
(5.04168 0.0085564 0)
(5.03999 0.00850093 1.01559e-19)
(5.03822 0.00844845 -9.96499e-20)
(5.03637 0.00840128 0)
(5.03444 0.00836187 -1.91728e-19)
(5.03242 0.00833166 -9.39873e-20)
(5.0303 0.00831421 1.84242e-19)
(5.02807 0.00831129 0)
(5.02571 0.00832852 0)
(5.02322 0.00836644 1.73166e-19)
(5.02054 0.00844434 8.47568e-20)
(5.01769 0.00853409 0)
(5.01465 0.00873445 0)
(5.01113 0.0088774 0)
(5.00794 0.00930045 0)
(5.00267 0.00960669 1.51536e-19)
(5.00067 0.010049 0)
(4.99032 0.0116329 0)
(4.99357 0.00996337 0)
(4.97131 0.0175439 0)
(4.98536 0.00696475 0)
(4.94632 0.0304412 0)
(4.96576 0.00245833 1.27037e-19)
(4.92317 0.0478029 0)
(4.91694 0.00735833 0)
(4.90068 0.0674732 2.33319e-19)
(4.83316 0.0294976 -1.13244e-19)
(4.84889 0.111538 1.09711e-19)
(4.70861 0.0901946 -1.06411e-19)
(-0.0493092 0.822918 0)
(-0.177161 0.860432 1.58127e-19)
(-0.297775 0.84714 0)
(-0.422065 0.840249 7.77395e-20)
(-0.545455 0.829044 0)
(-0.668941 0.814182 0)
(-0.791356 0.795261 -7.63857e-20)
(-0.912151 0.771886 0)
(-1.03073 0.743776 0)
(-1.14626 0.710578 0)
(-1.25766 0.671912 0)
(-1.3642 0.627403 0)
(-1.46435 0.57708 2.9038e-19)
(-1.55709 0.52042 1.442e-19)
(-1.64129 0.457721 -1.42976e-19)
(-1.71535 0.389046 0)
(-1.77757 0.314293 0)
(-1.82698 0.234397 0)
(-1.8626 0.149655 0)
(-1.88283 0.0611411 0)
(-1.88679 -0.0303337 1.35071e-19)
(-1.8731 -0.123614 1.33642e-19)
(-1.8415 -0.217126 -1.32182e-19)
(-1.79156 -0.309618 1.30693e-19)
(-1.72377 -0.399661 0)
(-1.63826 -0.485765 0)
(-1.53596 -0.566771 1.25784e-19)
(-1.41855 -0.641241 0)
(-1.28655 -0.708617 0)
(-1.14181 -0.767847 1.21197e-19)
(-0.986318 -0.818836 1.1987e-19)
(-0.821566 -0.861186 1.18336e-19)
(-0.649183 -0.894956 0)
(-0.470807 -0.920403 0)
(-0.287896 -0.937834 -1.13862e-19)
(-0.102101 -0.947738 0)
(0.0851201 -0.95059 0)
(0.272829 -0.947254 1.09576e-19)
(0.459986 -0.938259 -1.08362e-19)
(0.645553 -0.924282 1.07043e-19)
(0.828718 -0.905992 0)
(1.00882 -0.884038 0)
(1.18528 -0.859046 2.06496e-19)
(1.35762 -0.831608 0)
(1.52545 -0.802261 2.01806e-19)
(1.68853 -0.771492 2.99282e-19)
(1.84664 -0.739734 -2.95965e-19)
(1.99965 -0.707376 1.95166e-19)
(2.14744 -0.674754 0)
(2.28999 -0.642152 0)
(2.42733 -0.609814 1.88932e-19)
(2.55948 -0.577947 9.34386e-20)
(2.68648 -0.546727 0)
(2.8084 -0.516287 0)
(2.92535 -0.486733 9.05372e-20)
(3.03747 -0.458151 1.79249e-19)
(3.14486 -0.430613 0)
(3.24762 -0.404168 -1.75523e-19)
(3.34588 -0.378839 1.73766e-19)
(3.4398 -0.354641 -1.71982e-19)
(3.52952 -0.331583 0)
(3.61516 -0.309663 0)
(3.69684 -0.288868 0)
(3.77471 -0.269175 0)
(3.84892 -0.250559 0)
(3.9196 -0.232993 -1.61623e-19)
(3.98686 -0.216443 0)
(4.05084 -0.200871 0)
(4.11167 -0.186237 0)
(4.16947 -0.172507 -3.10115e-19)
(4.22436 -0.159636 -1.53429e-19)
(4.27647 -0.147583 -1.51827e-19)
(4.3259 -0.136307 3.00495e-19)
(4.37277 -0.125764 -1.48678e-19)
(4.41719 -0.115915 1.47085e-19)
(4.45925 -0.106728 0)
(4.49907 -0.098159 -1.43977e-19)
(4.53676 -0.0901795 0)
(4.57239 -0.0827463 0)
(4.60608 -0.0758316 0)
(4.6379 -0.0693972 -2.75771e-19)
(4.66797 -0.0634049 1.36391e-19)
(4.69634 -0.0578445 1.34911e-19)
(4.72311 -0.0526716 2.6683e-19)
(4.74834 -0.0478953 3.95812e-19)
(4.77211 -0.0434513 1.30466e-19)
(4.79454 -0.0393083 0)
(4.81569 -0.0354587 2.55147e-19)
(4.8356 -0.0318858 0)
(4.85434 -0.028574 3.74113e-19)
(4.87196 -0.0255039 0)
(4.88853 -0.0226507 3.6562e-19)