/*--------------------------------*- C++ -*----------------------------------*\
| =========                 |                                                 |
| \\      /  F ield         | OpenFOAM: The Open Source CFD Toolbox           |
|  \\    /   O peration     | Version:  2.1.x                                 |
|   \\  /    A nd           | Web:      www.OpenFOAM.org                      |
|    \\/     M anipulation  |                                                 |
\*---------------------------------------------------------------------------*/
FoamFile
{
    version     2.0;
    format      ascii;
    class       volVectorField;
    location    "0.005";
    object      U_0;
}
// * * * * * * * * * * * * * * * * * * * * * * * * * * * * * * * * * * * * * //

dimensions      [0 1 -1 0 0 0 0];

internalField   nonuniform List<vector> 
12225
(
(7.12356 0.443554 0)
(4.41034 0.190748 0)
(3.05639 0.0265631 0)
(2.41635 -0.0130845 0)
(2.10855 -0.0114593 0)
(1.96113 -0.00725025 0)
(1.91612 -0.00859956 0)
(1.89443 -0.005273 0)
(1.85527 0.00310328 0)
(1.81463 -0.000523405 0)
(1.81513 -0.00527125 0)
(1.85995 -0.00760461 0)
(1.89097 -0.00550124 0)
(1.93386 -0.00330179 0)
(1.92267 0.00171184 0)
(1.99315 -0.00954984 0)
(2.00972 -0.000586234 0)
(2.22046 -0.0717704 0)
(9.70717 0.965468 0)
(8.97465 0.819286 0)
(7.90923 0.42574 0)
(6.92866 0.220155 0)
(6.19773 0.12061 0)
(5.75897 0.056814 0)
(5.54514 0.0141956 0)
(5.36248 0.0132762 0)
(5.21882 0.0297859 0)
(5.12196 0.0120226 0)
(5.07067 -0.012485 0)
(5.13332 -0.0228889 0)
(5.12985 -0.0249299 0)
(5.19936 -0.0117449 0)
(5.16486 -0.00515715 0)
(5.30318 -0.0484881 0)
(5.25859 -0.0759114 0)
(5.65818 -0.118801 0)
(10.1763 0.736524 0)
(10.649 0.876876 0)
(10.5096 0.572248 0)
(9.99692 0.400124 0)
(9.39635 0.299306 0)
(8.93543 0.18554 0)
(8.68336 0.100196 0)
(8.4252 0.0935126 0)
(8.21835 0.095133 0)
(8.07031 0.0418812 0)
(7.91217 -0.0165235 0)
(7.91425 -0.031625 0)
(7.92456 -0.0214567 0)
(7.94404 -0.0183935 0)
(7.98652 -0.0132179 0)
(8.0452 -0.0607151 0)
(8.04731 -0.154582 0)
(8.21735 -0.293676 0)
(9.97184 0.571076 0)
(10.654 0.757363 0)
(11.0321 0.554275 0)
(11.1442 0.449873 0)
(11.0381 0.399526 0)
(10.8205 0.268055 0)
(10.6708 0.151601 0)
(10.4876 0.158426 0)
(10.404 0.185727 0)
(10.3589 0.135226 0)
(10.1975 0.0546994 0)
(10.0567 -0.0358667 0)
(10.0096 -0.0522055 0)
(10.0115 -0.0373974 0)
(10.1236 -0.0414364 0)
(10.1457 -0.0773016 0)
(10.2652 -0.170264 0)
(10.4214 -0.25388 0)
(10.1632 0.503781 0)
(10.5391 0.719513 0)
(10.8722 0.530131 0)
(11.2269 0.381435 0)
(11.3837 0.374521 0)
(11.2588 0.295045 0)
(11.013 0.197706 0)
(10.8391 0.183348 0)
(10.9909 0.158573 0)
(11.2216 0.10166 0)
(11.2833 0.0925922 0)
(11.1872 0.0591411 0)
(11.0763 0.00206978 0)
(11.0741 -0.0579684 0)
(11.1056 -0.0616831 0)
(11.0947 -0.117424 0)
(11.3657 -0.369286 0)
(11.5377 -0.318735 0)
(10.1272 0.31322 0)
(10.3778 0.574096 0)
(10.6304 0.416901 0)
(10.8829 0.274334 0)
(11.0367 0.341945 0)
(11.0453 0.347126 0)
(10.8826 0.260715 0)
(10.8321 0.151324 0)
(10.9895 0.050456 0)
(11.1429 0.0188835 0)
(11.2353 0.0699532 0)
(11.3316 0.055375 0)
(11.334 -0.028534 0)
(11.2056 -0.0542192 0)
(11.1624 -0.0607475 0)
(11.3269 -0.252525 0)
(11.4164 -0.453826 0)
(11.2257 -0.109529 0)
(9.97374 0.264208 0)
(10.2677 0.55091 0)
(10.5415 0.43705 0)
(10.6864 0.278085 0)
(10.786 0.313679 0)
(10.8674 0.34726 0)
(10.8819 0.262341 0)
(10.9009 0.125662 0)
(10.9418 0.0164336 0)
(10.9692 -0.0339407 0)
(11.0065 -0.0193352 0)
(11.0683 0.0221573 0)
(11.0535 0.0677755 0)
(11.0414 0.0348277 0)
(11.0915 -0.125744 0)
(11.0885 -0.284376 0)
(10.9601 -0.330678 0)
(10.9165 -0.101115 0)
(9.59933 0.20634 0)
(10.0626 0.409244 0)
(10.4637 0.331822 0)
(10.6549 0.236039 0)
(10.7271 0.273468 0)
(10.8224 0.28682 0)
(10.8879 0.211836 0)
(10.9128 0.119449 0)
(10.9203 0.0342402 0)
(10.9023 -0.00240368 0)
(10.8509 0.0235924 0)
(10.8522 0.0304819 0)
(10.8696 -0.0317539 0)
(10.9155 -0.0782997 0)
(10.9299 -0.10235 0)
(10.8961 -0.185466 0)
(10.8302 -0.341146 0)
(10.9387 -0.196227 0)
(9.69132 0.0385378 0)
(10.0783 0.207814 0)
(10.4348 0.24628 0)
(10.5687 0.245988 0)
(10.5898 0.300802 0)
(10.6425 0.295711 0)
(10.6656 0.203838 0)
(10.6923 0.0918905 0)
(10.7297 0.00378563 0)
(10.7626 -0.0273553 0)
(10.7704 -0.00776549 0)
(10.8263 0.030251 0)
(10.8494 0.0231233 0)
(10.7997 -0.011317 0)
(10.7476 -0.0862722 0)
(10.7778 -0.233874 0)
(10.8135 -0.404962 0)
(10.8671 -0.220333 0)
(10.1287 0.150365 0)
(10.1086 0.166266 0)
(10.1557 0.184021 0)
(10.205 0.203818 0)
(10.308 0.256405 0)
(10.4718 0.244976 0)
(10.5859 0.16754 0)
(10.6356 0.0893456 0)
(10.6475 0.0155064 0)
(10.6346 -0.0197046 0)
(10.616 0.00220527 0)
(10.6377 0.0022886 0)
(10.6908 -0.0333541 0)
(10.7333 -0.044578 0)
(10.7989 -0.0942643 0)
(10.8392 -0.234526 0)
(10.7393 -0.399936 0)
(10.6489 -0.224922 0)
(10.0635 0.0868271 0)
(10.1522 0.182008 0)
(10.1259 0.211573 0)
(10.0712 0.206204 0)
(10.1189 0.225976 0)
(10.2549 0.196902 0)
(10.3926 0.112111 0)
(10.4958 0.0346107 0)
(10.56 -0.0167255 0)
(10.6096 -0.0442014 0)
(10.6598 -0.0326824 0)
(10.7233 -0.00419169 0)
(10.7934 -0.0313941 0)
(10.8535 -0.0939559 0)
(10.9219 -0.134978 0)
(10.9759 -0.183301 0)
(10.9052 -0.304226 0)
(10.8741 -0.275456 0)
(10.1122 0.120519 0)
(10.1095 0.171106 0)
(10.0259 0.204686 0)
(9.96294 0.204308 0)
(10.0563 0.187132 0)
(10.2251 0.123993 0)
(10.3764 0.0441004 0)
(10.4656 -0.0167296 0)
(10.5062 -0.0565707 0)
(10.5275 -0.0811649 0)
(10.545 -0.098345 0)
(10.5565 -0.0963883 0)
(10.5931 -0.118823 0)
(10.6315 -0.152433 0)
(10.6302 -0.188195 0)
(10.6252 -0.209642 0)
(10.5871 -0.323064 0)
(10.673 -0.577536 0)
(10.0353 0.0823979 0)
(9.97458 0.318856 0)
(9.96234 0.285159 0)
(9.9808 0.194144 0)
(10.0668 0.102858 0)
(10.1785 0.0244792 0)
(10.2833 -0.0289148 0)
(10.3563 -0.0650484 0)
(10.3903 -0.0875663 0)
(10.4096 -0.0880678 0)
(10.4128 -0.0846887 0)
(10.3901 -0.0665116 0)
(10.3882 -0.0804848 0)
(10.4153 -0.131733 0)
(10.4261 -0.142552 0)
(10.4829 -0.130345 0)
(10.5695 -0.393921 0)
(10.5214 -0.803619 0)
(9.69629 0.17818 0)
(9.89625 0.188513 0)
(10.0633 0.114935 0)
(10.1935 0.0909417 0)
(10.2485 0.0662862 0)
(10.261 0.00478977 0)
(10.2529 -0.0631443 0)
(10.2564 -0.0963477 0)
(10.2596 -0.100479 0)
(10.2756 -0.0873274 0)
(10.3092 -0.0950354 0)
(10.3544 -0.120973 0)
(10.4099 -0.145895 0)
(10.4681 -0.194975 0)
(10.5149 -0.269466 0)
(10.6102 -0.363848 0)
(10.6357 -0.35952 0)
(10.3512 -0.225193 0)
(9.99641 0.0539189 0)
(10.0683 0.0155187 0)
(10.0507 0.0490223 0)
(10.1046 0.0614682 0)
(10.1777 0.0657532 0)
(10.2371 0.0441747 0)
(10.2489 -0.0010551 0)
(10.2694 -0.0518012 0)
(10.2942 -0.105419 0)
(10.3292 -0.149381 0)
(10.3746 -0.180221 0)
(10.3982 -0.211174 0)
(10.4099 -0.23076 0)
(10.4239 -0.263137 0)
(10.4207 -0.312301 0)
(10.3943 -0.236178 0)
(10.3864 -0.00674466 0)
(10.4482 -0.586144 0)
(9.97758 -0.0998253 0)
(9.9356 0.051894 0)
(9.9876 0.0600396 0)
(10.0686 -0.0248728 0)
(10.1199 -0.0679772 0)
(10.1476 -0.0800417 0)
(10.1571 -0.100752 0)
(10.169 -0.13121 0)
(10.1751 -0.156723 0)
(10.1588 -0.171458 0)
(10.1375 -0.16991 0)
(10.1194 -0.181528 0)
(10.1247 -0.199973 0)
(10.1409 -0.222964 0)
(10.152 -0.250835 0)
(10.1666 -0.351029 0)
(10.2767 -0.492952 0)
(10.4487 -0.0968804 0)
(9.99242 -0.013864 0)
(10.0085 0.0287187 0)
(9.99745 -0.0232834 0)
(10.0455 -0.050317 0)
(10.0876 -0.0304172 0)
(10.1139 -0.00596001 0)
(10.1268 -0.00815742 0)
(10.1174 -0.0363668 0)
(10.1136 -0.0666374 0)
(10.095 -0.0993319 0)
(10.0945 -0.134604 0)
(10.1051 -0.192958 0)
(10.1461 -0.263067 0)
(10.1921 -0.326804 0)
(10.2185 -0.390441 0)
(10.2361 -0.457016 0)
(10.2163 -0.476329 0)
(10.2157 -0.464068 0)
(9.7613 0.0195308 0)
(9.80164 0.0139148 0)
(9.81926 -0.0630494 0)
(9.84997 -0.164641 0)
(9.91954 -0.192378 0)
(10.0139 -0.14854 0)
(10.1018 -0.090753 0)
(10.1658 -0.0787166 0)
(10.2227 -0.110836 0)
(10.2396 -0.164825 0)
(10.2227 -0.222881 0)
(10.1876 -0.276233 0)
(10.1705 -0.327636 0)
(10.1665 -0.374377 0)
(10.1438 -0.408629 0)
(10.1114 -0.410838 0)
(10.0865 -0.427282 0)
(10.0785 -0.532746 0)
(10.1405 -0.0689711 0)
(10.1764 -0.0404976 0)
(10.1288 -0.0652094 0)
(10.079 -0.130067 0)
(10.079 -0.215205 0)
(10.1344 -0.262558 0)
(10.1908 -0.235041 0)
(10.2429 -0.174264 0)
(10.3017 -0.118973 0)
(10.3424 -0.0936131 0)
(10.3421 -0.102058 0)
(10.3151 -0.132852 0)
(10.3004 -0.185649 0)
(10.3029 -0.248255 0)
(10.29 -0.30814 0)
(10.2516 -0.367594 0)
(10.2175 -0.407481 0)
(10.1953 -0.406761 0)
(9.72518 0.0249424 0)
(9.84325 -0.0528644 0)
(9.97991 -0.0572305 0)
(10.1128 -0.128651 0)
(10.1652 -0.224284 0)
(10.1829 -0.290942 0)
(10.1852 -0.28387 0)
(10.1925 -0.232616 0)
(10.237 -0.188465 0)
(10.3029 -0.182253 0)
(10.3646 -0.20796 0)
(10.3953 -0.248263 0)
(10.4233 -0.287728 0)
(10.4442 -0.325791 0)
(10.4469 -0.349395 0)
(10.4228 -0.3556 0)
(10.3901 -0.350661 0)
(10.3648 -0.353002 0)
(10.0267 0.0204001 0)
(10.0278 -0.269647 0)
(10.051 -0.305985 0)
(10.1267 -0.271791 0)
(10.2074 -0.250498 0)
(10.2552 -0.244625 0)
(10.2744 -0.241102 0)
(10.2722 -0.232021 0)
(10.2805 -0.227343 0)
(10.2953 -0.238726 0)
(10.3114 -0.254072 0)
(10.3041 -0.265747 0)
(10.2994 -0.270026 0)
(10.3024 -0.273153 0)
(10.3089 -0.276131 0)
(10.3084 -0.28106 0)
(10.3045 -0.288077 0)
(10.306 -0.299867 0)
(9.88381 0.127463 0)
(9.97949 -0.109307 0)
(10.0346 -0.264832 0)
(10.0692 -0.322135 0)
(10.114 -0.344832 0)
(10.1764 -0.331757 0)
(10.2339 -0.290783 0)
(10.2697 -0.235605 0)
(10.3025 -0.196408 0)
(10.3338 -0.193852 0)
(10.3692 -0.221164 0)
(10.3862 -0.263787 0)
(10.3983 -0.302704 0)
(10.4087 -0.333587 0)
(10.4128 -0.352047 0)
(10.4018 -0.359232 0)
(10.3809 -0.354105 0)
(10.3607 -0.346055 0)
(10.0396 -0.0946021 0)
(10.1273 -0.279885 0)
(10.2672 -0.346618 0)
(10.4036 -0.35665 0)
(10.5003 -0.337407 0)
(10.5587 -0.304709 0)
(10.5969 -0.282374 0)
(10.6248 -0.277081 0)
(10.6501 -0.294279 0)
(10.6632 -0.321854 0)
(10.6758 -0.342525 0)
(10.6667 -0.346353 0)
(10.6496 -0.326239 0)
(10.6246 -0.29606 0)
(10.5906 -0.265491 0)
(10.5447 -0.2439 0)
(10.4916 -0.232687 0)
(10.4396 -0.23608 0)
(10.1364 -0.083305 0)
(10.2141 -0.334808 0)
(10.2684 -0.470474 0)
(10.3086 -0.465223 0)
(10.3858 -0.422074 0)
(10.4886 -0.373451 0)
(10.5852 -0.323493 0)
(10.6479 -0.271763 0)
(10.6627 -0.235961 0)
(10.6309 -0.222503 0)
(10.5757 -0.233139 0)
(10.5101 -0.251624 0)
(10.4661 -0.260297 0)
(10.4514 -0.259774 0)
(10.4653 -0.249047 0)
(10.4885 -0.240067 0)
(10.5165 -0.234723 0)
(10.5456 -0.238762 0)
(10.2247 -0.308992 0)
(10.414 -0.404639 0)
(10.5724 -0.408819 0)
(10.6736 -0.402379 0)
(10.7293 -0.398632 0)
(10.7423 -0.393544 0)
(10.7291 -0.376618 0)
(10.7197 -0.339215 0)
(10.7268 -0.304198 0)
(10.7462 -0.279699 0)
(10.7648 -0.272311 0)
(10.7696 -0.275583 0)
(10.7627 -0.27735 0)
(10.7474 -0.27977 0)
(10.7326 -0.282262 0)
(10.7148 -0.288381 0)
(10.6983 -0.292928 0)
(10.6862 -0.298613 0)
(9.79501 -0.260875 0)
(10.0151 -0.553241 0)
(10.3568 -0.594061 0)
(10.6661 -0.510724 0)
(10.8555 -0.422156 0)
(10.931 -0.370345 0)
(10.94 -0.335751 0)
(10.9328 -0.29901 0)
(10.928 -0.274433 0)
(10.9276 -0.261323 0)
(10.927 -0.258211 0)
(10.9179 -0.256577 0)
(10.9002 -0.2476 0)
(10.8757 -0.237899 0)
(10.848 -0.232426 0)
(10.818 -0.235448 0)
(10.7851 -0.241138 0)
(10.7517 -0.250137 0)
(9.89496 -0.369546 0)
(10.4468 -0.684579 0)
(10.8293 -0.684225 0)
(11.0719 -0.570601 0)
(11.1678 -0.47969 0)
(11.1358 -0.424597 0)
(11.038 -0.386209 0)
(10.9294 -0.347416 0)
(10.8355 -0.314706 0)
(10.7555 -0.288114 0)
(10.6854 -0.270068 0)
(10.6145 -0.255349 0)
(10.5462 -0.241296 0)
(10.4761 -0.232113 0)
(10.4107 -0.230131 0)
(10.3385 -0.235607 0)
(10.2638 -0.241978 0)
(10.1764 -0.244257 0)
(9.87898 -0.502733 0)
(10.4503 -0.915983 0)
(10.711 -0.794108 0)
(10.6711 -0.592437 0)
(10.4688 -0.444791 0)
(10.2085 -0.345171 0)
(9.93544 -0.281604 0)
(9.67937 -0.239734 0)
(9.44533 -0.214903 0)
(9.23988 -0.199874 0)
(9.05566 -0.192578 0)
(8.88352 -0.182242 0)
(8.72547 -0.170842 0)
(8.56822 -0.157204 0)
(8.42475 -0.150479 0)
(8.27653 -0.147607 0)
(8.14263 -0.147532 0)
(8.00137 -0.143244 0)
(10.1462 -0.776893 0)
(9.9372 -1.07613 0)
(9.30584 -0.804177 0)
(8.55333 -0.533383 0)
(7.85669 -0.350197 0)
(7.29159 -0.228101 0)
(6.84496 -0.153469 0)
(6.49345 -0.109515 0)
(6.20129 -0.0865515 0)
(5.95727 -0.0753687 0)
(5.73864 -0.0684623 0)
(5.5519 -0.0612432 0)
(5.38341 -0.0552414 0)
(5.24003 -0.0491915 0)
(5.11013 -0.0517765 0)
(4.98598 -0.052392 0)
(4.87295 -0.0618928 0)
(4.74436 -0.0614753 0)
(8.89785 -0.370757 0)
(6.28695 -0.3731 0)
(4.41347 -0.143279 0)
(3.308 -0.0212491 0)
(2.70886 0.0211534 0)
(2.38462 0.0336736 0)
(2.19892 0.0308187 0)
(2.08181 0.023162 0)
(1.99398 0.0154834 0)
(1.92004 0.00963057 0)
(1.84817 0.00519229 0)
(1.78225 0.00187542 0)
(1.71798 -2.78969e-05 0)
(1.66526 -0.000907875 0)
(1.6084 -0.00237526 0)
(1.56126 -0.00267898 0)
(1.49617 -0.0109964 0)
(1.4316 0.0033639 0)
(-0.054514 0.116551 0)
(-0.165543 0.118165 0)
(-0.27473 0.116631 0)
(-0.385656 0.115425 0)
(-0.495203 0.113637 0)
(-0.604208 0.111327 0)
(-0.711161 0.108479 4.78172e-20)
(-0.815924 0.104991 -4.74604e-20)
(-0.917731 0.100938 0)
(-1.01599 0.0963457 -4.6755e-20)
(-1.10958 0.0911498 0)
(-1.19772 0.0852308 0)
(-1.28008 0.0786469 0)
(-1.35551 0.0714309 4.5391e-20)
(-1.42314 0.0635256 0)
(-1.48182 0.0549436 0)
(-1.53109 0.0456906 -4.44261e-20)
(-1.56984 0.0359494 0)
(-1.59735 0.0255555 0)
(-1.61316 0.0148795 0)
(-1.6163 0.00379323 4.32403e-20)
(-1.60595 -0.00729103 0)
(-1.58185 -0.0184165 4.26934e-20)
(-1.54425 -0.0295493 0)
(-1.49298 -0.0402611 0)
(-1.42848 -0.0504371 4.19234e-20)
(-1.35096 -0.0599492 0)
(-1.26125 -0.0687568 -4.14344e-20)
(-1.16025 -0.0765753 0)
(-1.04873 -0.0833458 4.09557e-20)
(-0.927937 -0.0890304 0)
(-0.798957 -0.0935639 0)
(-0.663005 -0.0969127 0)
(-0.521335 -0.0990991 0)
(-0.375229 -0.100168 0)
(-0.225927 -0.100169 -3.95001e-20)
(-0.0747144 -0.0992215 0)
(0.0771135 -0.0973657 7.79757e-20)
(0.228598 -0.0946388 0)
(0.378794 -0.0911938 -7.69148e-20)
(0.526692 -0.0871371 0)
(0.671487 -0.0825728 0)
(0.81245 -0.0775981 7.52526e-20)
(0.948924 -0.072308 0)
(1.08037 -0.0667977 7.41011e-20)
(1.20638 -0.0611573 -7.3514e-20)
(1.32662 -0.0554663 0)
(1.44082 -0.0497944 -7.23204e-20)
(1.54878 -0.0442063 -7.17154e-20)
(1.65041 -0.0387601 0)
(1.74568 -0.0335008 0)
(1.83461 -0.0284623 0)
(1.91725 -0.0236762 0)
(1.99371 -0.0191726 0)
(2.06417 -0.0149705 6.8014e-20)
(2.12882 -0.0110736 0)
(2.18784 -0.00748223 -6.6768e-20)
(2.24146 -0.00420264 0)
(2.28994 -0.0012384 0)
(2.33356 0.0014215 6.49016e-20)
(2.37257 0.00379595 0)
(2.40722 0.00589714 -6.36636e-20)
(2.43779 0.00773154 0)
(2.46457 0.00931386 0)
(2.48782 0.0106686 0)
(2.50777 0.0118157 6.12133e-20)
(2.52469 0.0127697 0)
(2.53881 0.013542 0)
(2.55038 0.0141564 5.94048e-20)
(2.5596 0.0146341 0)
(2.56666 0.0149747 5.82153e-20)
(2.57178 0.0152003 0)
(2.57514 0.0153305 0)
(2.57693 0.0153046 0)
(2.57727 0.0151465 -5.58786e-20)
(2.57629 0.0149294 0)
(2.57416 0.0146839 0)
(2.57099 0.0144194 -5.41651e-20)
(2.5669 0.0141397 -5.36015e-20)
(2.56197 0.0138441 0)
(2.55629 0.0135374 -5.24859e-20)
(2.54996 0.0132226 0)
(2.54303 0.01291 -1.02771e-19)
(2.53557 0.0126017 0)
(2.52765 0.0122743 -1.00601e-19)
(2.5193 0.0119758 0)
(2.51055 0.0117002 9.84615e-20)
(2.50145 0.0114349 0)
(2.49205 0.0111718 0)
(2.4824 0.0109068 0)
(2.47253 0.0106432 -9.42727e-20)
(2.46247 0.0103868 0)
(2.45224 0.0101382 9.22228e-20)
(2.44185 0.00989449 0)
(2.43133 0.00965343 -9.0202e-20)
(2.42071 0.00941512 -8.92025e-20)
(2.40999 0.00918201 -8.821e-20)
(2.39918 0.00895551 0)
(2.3883 0.00873555 0)
(2.37736 0.00852056 0)
(2.36637 0.00831065 0)
(2.35535 0.00810826 0)
(2.34431 0.00791439 0)
(2.33323 0.00772685 0)
(2.32214 0.00754282 0)
(2.31103 0.00736206 7.95888e-20)
(2.29992 0.00718711 7.86644e-20)
(2.28882 0.00702011 0)
(2.27771 0.00686018 0)
(2.2666 0.00670418 0)
(2.2555 0.00654993 7.50311e-20)
(2.24442 0.00639818 0)
(2.23335 0.00625157 0)
(2.22231 0.00611156 0)
(2.21128 0.00597682 0)
(2.20026 0.00584483 -7.06298e-20)
(2.18927 0.0057142 0)
(2.17831 0.00558531 0)
(2.16737 0.00545969 6.80612e-20)
(2.15646 0.00533851 -6.72167e-20)
(2.14558 0.0052215 0)
(2.13473 0.00510749 -6.55448e-20)
(2.12391 0.00499531 0)
(2.11312 0.00488429 6.38956e-20)
(2.10236 0.00477448 0)
(2.09164 0.00466655 0)
(2.08096 0.0045615 0)
(2.07031 0.00445993 0)
(2.0597 0.00436156 0)
(2.04912 0.00426525 -1.18158e-19)
(2.03858 0.00416963 -1.1659e-19)
(2.02807 0.00407405 0)
(2.0176 0.00397911 0)
(2.00717 0.0038862 0)
(1.99679 0.00379644 1.10419e-19)
(1.98644 0.0037097 0)
(1.97613 0.00362466 0)
(1.96585 0.00353972 0)
(1.95561 0.00345421 1.04408e-19)
(1.94542 0.00336901 -1.02929e-19)
(1.93527 0.00328581 0)
(1.92516 0.00320568 0)
(1.9151 0.00312812 -9.85497e-20)
(1.90507 0.00305172 -9.71083e-20)
(1.89508 0.0029754 0)
(1.88513 0.00289901 0)
(1.87522 0.00282322 9.28382e-20)
(1.86536 0.00274914 -9.14326e-20)
(1.85554 0.00267763 0)
(1.84576 0.0026086 0)
(1.83601 0.00254117 -8.72676e-20)
(1.8263 0.00247459 0)
(1.81663 0.00240876 0)
(1.80698 0.00234416 -8.31786e-20)
(1.79737 0.00228124 0)
(1.78778 0.00222064 -8.04936e-20)
(1.77822 0.00216287 0)
(1.76866 0.00210848 0)
(1.75911 0.00205781 0)
(1.74955 0.00201045 7.52194e-20)
(1.73995 0.00196901 0)
(1.73032 0.00192768 0)
(1.72059 0.00190491 0)
(1.71082 0.00186133 0)
(1.70074 0.00189427 0)
(1.69085 0.00179737 0)
(1.67979 0.00201594 6.62882e-20)
(1.67022 0.00167235 6.50441e-20)
(1.65645 0.00241875 0)
(1.64886 0.00141576 0)
(1.62846 0.00318302 0)
(1.62617 0.00127332 -6.01502e-20)
(1.59336 0.00405422 0)
(1.59772 0.00220439 1.15519e-19)
(1.54956 0.00448704 -1.13158e-19)
(1.55277 0.00522655 -1.10835e-19)
(1.49179 0.00639589 1.08536e-19)
(1.46596 0.00813492 -1.06293e-19)
(1.41833 0.0218237 1.04087e-19)
(1.22558 -0.00419101 0)
(-0.0529149 0.349528 0)
(-0.168182 0.356457 0)
(-0.278931 0.35109 -9.85053e-20)
(-0.39203 0.347649 0)
(-0.503956 0.342384 9.70553e-20)
(-0.615273 0.335496 9.63343e-20)
(-0.724888 0.326818 4.77925e-20)
(-0.8324 0.316218 4.74689e-20)
(-0.936714 0.303653 0)
(-1.03749 0.288984 4.67661e-20)
(-1.13374 0.272264 0)
(-1.22437 0.253183 0)
(-1.30875 0.231816 -9.14342e-20)
(-1.3858 0.208183 -4.54074e-20)
(-1.4546 0.182184 9.01109e-20)
(-1.51383 0.153911 8.94677e-20)
(-1.5627 0.123498 4.44458e-20)
(-1.60039 0.0912929 0)
(-1.6258 0.0572104 0)
(-1.63847 0.0218685 0)
(-1.63729 -0.0146159 4.32085e-20)
(-1.62129 -0.0515093 0)
(-1.591 -0.0887415 -1.28096e-19)
(-1.54583 -0.12564 0)
(-1.48534 -0.161446 0)
(-1.41061 -0.195865 -4.19448e-20)
(-1.32192 -0.22823 0)
(-1.21982 -0.258347 4.14559e-20)
(-1.10515 -0.285622 8.24084e-20)
(-0.978962 -0.309923 -4.09775e-20)
(-0.842492 -0.330856 0)
(-0.6968 -0.348424 0)
(-0.543129 -0.362555 0)
(-0.382755 -0.373279 8.00351e-20)
(-0.216897 -0.380701 7.95477e-20)
(-0.0468299 -0.384938 3.95255e-20)
(0.126235 -0.386268 0)
(0.301213 -0.384873 -7.80306e-20)
(0.477076 -0.380925 0)
(0.652852 -0.374744 7.69746e-20)
(0.82766 -0.366599 0)
(1.00073 -0.356755 0)
(1.17138 -0.345469 -7.53204e-20)
(1.33898 -0.33299 0)
(1.50299 -0.319563 -2.22537e-19)
(1.663 -0.305413 7.359e-20)
(1.81866 -0.290743 0)
(1.96966 -0.27573 7.24016e-20)
(2.11575 -0.260541 7.1799e-20)
(2.25675 -0.245328 0)
(2.39257 -0.230226 0)
(2.52314 -0.215339 0)
(2.64838 -0.200758 0)
(2.76829 -0.186565 0)
(2.88289 -0.172832 -6.81092e-20)
(2.99226 -0.15961 -1.34978e-19)
(3.09646 -0.146935 6.68656e-20)
(3.19556 -0.134837 0)
(3.28966 -0.123344 -1.31245e-19)
(3.37891 -0.112471 6.50019e-20)
(3.46344 -0.102217 0)
(3.54336 -0.092578 6.37642e-20)
(3.61883 -0.0835512 0)
(3.69001 -0.0751305 0)
(3.75706 -0.0672988 1.23844e-19)
(3.82014 -0.0600282 -6.13137e-20)
(3.87938 -0.0533045 1.21413e-19)
(3.93498 -0.0470982 -1.20207e-19)
(3.98707 -0.0413906 -5.95038e-20)
(4.03585 -0.0361615 0)
(4.08142 -0.0313605 -5.83131e-20)
(4.12396 -0.0269943 0)
(4.16367 -0.0230196 0)
(4.20058 -0.0194039 0)
(4.23489 -0.016146 -5.59718e-20)
(4.26677 -0.0132041 0)
(4.29633 -0.0105451 -1.09649e-19)
(4.32368 -0.00813701 1.62768e-19)
(4.34895 -0.00596553 5.36918e-20)
(4.37224 -0.00400493 0)
(4.39369 -0.00224187 5.2574e-20)
(4.41338 -0.000659707 0)
(4.43144 0.000772853 1.02943e-19)
(4.44794 0.00204859 0)
(4.463 0.00321064 1.00769e-19)
(4.47671 0.00421784 -1.99385e-19)
(4.48911 0.00508877 -9.86249e-20)
(4.50028 0.00585559 0)
(4.5103 0.006542 0)
(4.51924 0.00715652 0)
(4.52718 0.00769215 9.4428e-20)
(4.53418 0.00816069 0)
(4.54029 0.00858302 -9.23741e-20)
(4.54556 0.00894796 0)
(4.55005 0.0092625 2.71048e-19)
(4.55379 0.00954359 8.93481e-20)
(4.55684 0.00979074 8.83538e-20)
(4.55924 0.00999542 0)
(4.56103 0.0101639 0)
(4.56223 0.0103026 0)
(4.56289 0.0104139 0)
(4.56304 0.0105023 0)
(4.56271 0.0105721 1.6507e-19)
(4.56193 0.0106249 1.63178e-19)
(4.56071 0.0106603 0)
(4.55909 0.0106787 -7.97173e-20)
(4.55709 0.0106829 -7.87913e-20)
(4.55474 0.0106768 0)
(4.55204 0.0106628 -1.53918e-19)
(4.54902 0.0106401 0)
(4.5457 0.0106068 7.5152e-20)
(4.54209 0.010563 0)
(4.53821 0.0105113 0)
(4.53407 0.0104554 -1.44977e-19)
(4.52969 0.0103966 0)
(4.52508 0.0103334 7.07433e-20)
(4.52024 0.0102641 0)
(4.51519 0.0101888 0)
(4.50995 0.0101092 6.81708e-20)
(4.50451 0.0100277 6.73246e-20)
(4.49889 0.00994538 0)
(4.4931 0.00986152 -6.56505e-20)
(4.48713 0.00977515 0)
(4.481 0.00968571 6.39987e-20)
(4.47472 0.00959323 1.26362e-19)
(4.46829 0.00949853 0)
(4.46172 0.00940307 0)
(4.45501 0.00930816 0)
(4.44817 0.00921429 0)
(4.44119 0.00912086 1.18349e-19)
(4.43409 0.00902645 3.50335e-19)
(4.42686 0.0089299 0)
(4.41951 0.00883139 0)
(4.41204 0.00873245 0)
(4.40447 0.00863492 -1.10598e-19)
(4.39678 0.00853963 0)
(4.38897 0.0084458 0)
(4.38106 0.00835151 2.12138e-19)
(4.37304 0.00825512 1.04579e-19)
(4.36492 0.00815664 1.03097e-19)
(4.35669 0.0080581 0)
(4.34836 0.00796186 0)
(4.33993 0.00786843 9.8711e-20)
(4.3314 0.0077765 -9.72683e-20)
(4.32276 0.00768431 0)
(4.31403 0.00759088 0)
(4.30519 0.00749663 -9.29911e-20)
(4.29626 0.00740313 2.74751e-19)
(4.28723 0.00731241 0)
(4.2781 0.00722534 0)
(4.26887 0.00714105 8.74123e-20)
(4.25953 0.00705872 0)
(4.25008 0.00697794 1.69349e-19)
(4.24053 0.00689916 -8.3318e-20)
(4.23086 0.00682397 0)
(4.22108 0.00675385 8.06283e-20)
(4.21118 0.00668985 1.58593e-19)
(4.20114 0.00663492 0)
(4.19096 0.00658986 0)
(4.18062 0.00655742 -7.53464e-20)
(4.17009 0.0065427 0)
(4.1594 0.00653945 1.45505e-19)
(4.14834 0.00658041 0)
(4.13735 0.00660012 0)
(4.12523 0.00678705 0)
(4.11456 0.00673017 0)
(4.09944 0.00739498 -6.64016e-20)
(4.09171 0.00678587 -6.51557e-20)
(4.06815 0.00897271 0)
(4.07012 0.00637634 0)
(4.02795 0.0124388 0)
(4.04771 0.00540143 6.02539e-20)
(3.98075 0.0183585 0)
(4.01052 0.0052317 -1.15718e-19)
(3.93626 0.0275356 1.13351e-19)
(3.93696 0.00726321 1.11024e-19)
(3.89066 0.0458961 1.08697e-19)
(3.8108 0.0116999 1.0647e-19)
(3.81891 0.0874972 1.04192e-19)
(3.57182 0.0396701 0)
(-0.051475 0.583929 0)
(-0.171828 0.601409 0)
(-0.286434 0.592233 9.85046e-20)
(-0.403998 0.586728 9.77319e-20)
(-0.520461 0.578285 -9.70563e-20)
(-0.6366 0.567103 -9.63361e-20)
(-0.751286 0.552943 -5.53067e-23)
(-0.864101 0.535623 0)
(-0.974242 0.515028 0)
(-1.08084 0.490765 0)
(-1.18303 0.46289 0)
(-1.27993 0.431069 0)
(-1.3705 0.395207 2.74161e-19)
(-1.45382 0.355321 0)
(-1.52877 0.311383 -9.01172e-20)
(-1.59377 0.263424 -8.94739e-20)
(-1.64794 0.211583 0)
(-1.69039 0.156549 0)
(-1.72002 0.0984002 0)
(-1.73601 0.0377787 0)
(-1.73717 -0.0245856 -8.64757e-20)
(-1.72278 -0.0881333 0)
(-1.69266 -0.151866 8.53865e-20)
(-1.64604 -0.214813 0)
(-1.58334 -0.276024 0)
(-1.50528 -0.335 0)
(-1.41208 -0.390155 1.66619e-19)
(-1.30483 -0.44136 0)
(-1.18448 -0.487783 -8.2415e-20)
(-1.05208 -0.528874 1.63813e-19)
(-0.909104 -0.56433 0)
(-0.757044 -0.594016 0)
(-0.597105 -0.617901 0)
(-0.430719 -0.636062 -8.00438e-20)
(-0.259202 -0.64869 -7.9557e-20)
(-0.0839546 -0.65602 0)
(0.0937436 -0.658517 0)
(0.272891 -0.656553 1.56101e-19)
(0.452446 -0.65053 1.55062e-19)
(0.631423 -0.640904 -1.54002e-19)
(0.808993 -0.628137 0)
(0.984458 -0.612681 0)
(1.1572 -0.594968 0)
(1.32665 -0.575412 0)
(1.49236 -0.554398 1.48399e-19)
(1.65398 -0.53228 1.47245e-19)
(1.81127 -0.509376 -1.46063e-19)
(1.964 -0.485975 0)
(2.11198 -0.462333 0)
(2.25509 -0.438669 0)
(2.39332 -0.415168 0)
(2.52663 -0.391991 1.39996e-19)
(2.655 -0.369276 0)
(2.77846 -0.34714 0)
(2.89707 -0.325669 1.36281e-19)
(3.01091 -0.304932 1.35037e-19)
(3.12007 -0.284982 0)
(3.2246 -0.265861 -2.65102e-19)
(3.32463 -0.247598 1.31309e-19)
(3.42026 -0.230208 -1.30069e-19)
(3.51164 -0.213694 0)
(3.59886 -0.198053 0)
(3.68202 -0.183277 0)
(3.76128 -0.16935 0)
(3.83677 -0.156253 -1.23915e-19)
(3.90861 -0.14396 -2.45391e-19)
(3.97691 -0.132442 -1.21486e-19)
(4.04181 -0.12167 1.2028e-19)
(4.10344 -0.111609 0)
(4.16192 -0.102234 -2.35768e-19)
(4.21736 -0.0935099 -2.33394e-19)
(4.2699 -0.0853855 -2.31034e-19)
(4.31966 -0.0778544 2.28687e-19)
(4.36675 -0.0708574 0)
(4.41129 -0.0643502 3.36058e-19)
(4.45338 -0.0583119 0)
(4.49315 -0.0527248 -1.09721e-19)
(4.53069 -0.047547 -1.08588e-19)
(4.56611 -0.0427609 0)
(4.5995 -0.038335 0)
(4.63096 -0.0342412 -2.10444e-19)
(4.6606 -0.0304626 0)
(4.6885 -0.0269588 -2.06034e-19)
(4.71475 -0.0237423 0)
(4.73944 -0.020766 2.01685e-19)
(4.76259 -0.018055 3.99068e-19)
(4.78435 -0.0155947 0)
(4.8048 -0.013339 0)
(4.82399 -0.0112589 0)
(4.84197 -0.00934365 1.91076e-19)
(4.85881 -0.00757966 0)
(4.8746 -0.00596039 1.86936e-19)
(4.88937 -0.004476 0)
(4.90317 -0.00310761 0)
(4.91608 -0.00186094 -3.61675e-19)
(4.92815 -0.000725872 0)
(4.9394 0.000330544 -1.76843e-19)
(4.94988 0.0012997 0)
(4.95965 0.00218556 -1.72906e-19)
(4.96874 0.00299425 0)
(4.97721 0.00373058 0)
(4.98507 0.00440234 0)
(4.99238 0.00501626 -4.95593e-19)
(4.99915 0.00557552 -1.63305e-19)
(5.00542 0.00608238 0)
(5.01123 0.00654017 0)
(5.01659 0.00695359 0)
(5.02154 0.00732777 0)
(5.02611 0.00766639 1.54038e-19)
(5.0303 0.00797122 -3.04446e-19)
(5.03414 0.00824295 -1.50421e-19)
(5.03767 0.00848338 2.97264e-19)
(5.04089 0.00869618 2.9371e-19)
(5.04383 0.00888527 1.45091e-19)
(5.04649 0.00905275 0)
(5.04891 0.00919884 2.83196e-19)
(5.05108 0.00932408 0)
(5.05303 0.00943013 -2.76307e-19)
(5.05477 0.00951967 -1.36449e-19)
(5.05632 0.0095955 0)
(5.05768 0.00965884 2.66149e-19)
(5.05886 0.00970949 1.31405e-19)
(5.05988 0.00974732 0)
(5.06074 0.00977299 1.28098e-19)
(5.06146 0.00978777 -3.79387e-19)
(5.06204 0.00979344 0)
(5.06248 0.00979178 0)
(5.06281 0.00978387 0)
(5.06302 0.00977016 0)
(5.06311 0.00975044 -2.36888e-19)
(5.0631 0.00972418 -2.33744e-19)
(5.06299 0.00969137 0)
(5.06278 0.00965298 0)
(5.06248 0.00961079 0)
(5.0621 0.00956638 0)
(5.06163 0.00952035 0)
(5.06108 0.00947214 0)
(5.06045 0.00942039 -2.1231e-19)
(5.05974 0.00936408 -3.16614e-26)
(5.05895 0.00930387 0)
(5.0581 0.00924205 0)
(5.05717 0.00918081 -2.00492e-19)
(5.05618 0.00912034 0)
(5.05512 0.00905913 1.94695e-19)
(5.05399 0.00899576 1.91824e-19)
(5.05279 0.00892991 0)
(5.05153 0.00886261 0)
(5.0502 0.00879595 -1.83319e-19)
(5.0488 0.0087321 -3.61038e-19)
(5.04734 0.00867157 0)
(5.04581 0.00861311 0)
(5.0442 0.00855591 0)
(5.04252 0.00850047 -1.6949e-19)
(5.04077 0.00844803 1.66775e-19)
(5.03893 0.0084009 0)
(5.03701 0.00836152 3.22786e-19)
(5.035 0.00833134 1.58726e-19)
(5.03289 0.0083139 -3.12151e-19)
(5.03067 0.00831098 0)
(5.02832 0.00832816 0)
(5.02584 0.00836611 -2.96434e-19)
(5.02318 0.00844372 -1.45629e-19)
(5.02034 0.0085338 0)
(5.01732 0.00873321 0)
(5.01381 0.00887709 0)
(5.01062 0.00929896 0)
(5.00539 0.00960364 -2.65832e-19)
(5.00335 0.0100535 0)
(4.99312 0.0116141 0)
(4.99623 0.00999289 0)
(4.97419 0.0174862 0)
(4.98803 0.00703217 0)
(4.9492 0.0303599 0)
(4.96856 0.00250318 -2.31597e-19)
(4.92593 0.0477917 0)
(4.91992 0.00731349 0)
(4.9034 0.0675174 -4.35157e-19)
(4.83614 0.029492 2.1298e-19)
(4.8517 0.111583 -2.08626e-19)
(4.71162 0.0902917 2.04072e-19)
(-0.0493073 0.821307 0)
(-0.176883 0.858111 -1.98222e-19)
(-0.297216 0.844741 0)
(-0.421208 0.837765 -9.77315e-20)
(-0.544289 0.826469 0)
(-0.667442 0.811495 0)
(-0.789501 0.792444 9.54026e-20)
(-0.909911 0.768923 0)
(-1.02807 0.74065 0)
(-1.14315 0.70728 0)
(-1.25405 0.668432 0)
(-1.36005 0.623737 0)
(-1.45963 0.573231 -3.65201e-19)
(-1.55175 0.516398 -1.81122e-19)
(-1.63528 0.453541 1.79789e-19)
(-1.70864 0.384737 0)
(-1.77012 0.309887 0)
(-1.81874 0.229937 0)
(-1.85358 0.145196 0)
(-1.873 0.0567404 0)
(-1.87615 -0.0346092 -1.72462e-19)
(-1.86166 -0.127692 -1.71372e-19)
(-1.82931 -0.220937 1.7032e-19)
(-1.77867 -0.313097 -1.69304e-19)
(-1.71027 -0.402756 0)
(-1.62423 -0.488436 0)
(-1.52149 -0.568992 -1.66617e-19)
(-1.40375 -0.642997 0)
(-1.27151 -0.709909 0)
(-1.12663 -0.768684 -1.63812e-19)
(-0.971074 -0.819239 -1.62792e-19)
(-0.806348 -0.861182 -1.61882e-19)
(-0.634064 -0.894578 0)
(-0.455854 -0.919686 0)
(-0.273169 -0.936814 1.59078e-19)
(-0.0876856 -0.94645 0)
(0.0992196 -0.949132 0)
(0.286621 -0.945606 -1.56102e-19)
(0.47341 -0.936462 1.5508e-19)
(0.658587 -0.922374 -1.54028e-19)
(0.841347 -0.904005 0)
(1.02103 -0.882003 0)
(1.19708 -0.856989 -3.01445e-19)
(1.369 -0.829551 0)
(1.53642 -0.800223 -2.96865e-19)
(1.69909 -0.769489 -4.41775e-19)
(1.85681 -0.737779 4.38226e-19)
(2.00942 -0.705479 -2.89769e-19)
(2.15684 -0.672923 0)
(2.29902 -0.640394 0)
(2.43601 -0.608132 -2.82477e-19)
(2.56782 -0.576345 -1.40002e-19)
(2.69449 -0.545206 0)
(2.8161 -0.514848 0)
(2.93275 -0.485375 -1.36289e-19)
(3.04459 -0.456874 -2.70097e-19)
(3.1517 -0.429415 0)
(3.2542 -0.403046 2.65122e-19)
(3.35221 -0.377791 -2.62636e-19)
(3.44589 -0.353665 2.60154e-19)
(3.53538 -0.330675 0)
(3.6208 -0.308821 0)
(3.70228 -0.288088 0)
(3.77995 -0.268454 0)
(3.85398 -0.249893 0)
(3.92447 -0.232379 2.4542e-19)
(3.99157 -0.215879 0)
(4.05539 -0.200353 0)
(4.11607 -0.185762 0)
(4.17372 -0.172071 4.71597e-19)
(4.22848 -0.159238 2.33429e-19)
(4.28045 -0.147219 2.31069e-19)
(4.32976 -0.135974 -4.57442e-19)
(4.37652 -0.125461 2.26387e-19)
(4.42082 -0.115639 -2.24075e-19)
(4.46278 -0.106477 0)
(4.50251 -0.0979305 2.19486e-19)
(4.5401 -0.089972 0)
(4.57565 -0.0825579 0)
(4.60925 -0.0756608 0)
(4.641 -0.0692424 4.20968e-19)
(4.67099 -0.0632647 -2.0827e-19)
(4.6993 -0.0577176 -2.0607e-19)
(4.726 -0.0525573 -4.07784e-19)
(4.75117 -0.047793 -6.05181e-19)
(4.77489 -0.0433579 -1.99577e-19)
(4.79726 -0.0392239 0)
(4.81837 -0.0353828 -3.90635e-19)
(4.83823 -0.0318175 0)
(4.85693 -0.0285126 -5.73362e-19)
(4.87451 -0.0254486 0)