/*--------------------------------*- C++ -*----------------------------------*\
| =========                 |                                                 |
| \\      /  F ield         | OpenFOAM: The Open Source CFD Toolbox           |
|  \\    /   O peration     | Version:  2.1.x                                 |
|   \\  /    A nd           | Web:      www.OpenFOAM.org                      |
|    \\/     M anipulation  |                                                 |
\*---------------------------------------------------------------------------*/
FoamFile
{
    version     2.0;
    format      ascii;
    class       volVectorField;
    location    "0.005";
    object      UMean;
}
// * * * * * * * * * * * * * * * * * * * * * * * * * * * * * * * * * * * * * //

dimensions      [0 1 -1 0 0 0 0];

internalField   nonuniform List<vector> 
12225
(
(7.11594 0.387303 0)
(4.69153 0.180971 0)
(3.43192 0.0254599 0)
(2.87747 -0.0135417 0)
(2.65828 -0.0152917 0)
(2.62893 -0.0109903 0)
(2.60105 -0.00637419 0)
(2.67453 -0.0064855 0)
(2.6732 -0.00606518 0)
(2.79244 -0.00783083 0)
(2.81811 -0.0114221 0)
(2.97852 -0.00895772 0)
(3.07785 -0.0203832 0)
(3.22901 -0.0100924 0)
(3.58296 -0.0486473 0)
(3.56645 0.0132215 0)
(4.59356 -0.23856 0)
(4.45903 0.0575056 0)
(9.66793 0.915885 0)
(9.10597 0.763372 0)
(8.10922 0.382324 0)
(7.31414 0.175781 0)
(6.74249 0.0692421 0)
(6.55313 0.0182054 0)
(6.33196 -0.00796211 0)
(6.43725 -0.0188492 0)
(6.31446 -0.0266857 0)
(6.55513 -0.043957 0)
(6.498 -0.0404143 0)
(6.80981 -0.0891489 0)
(6.8775 -0.0530943 0)
(7.20791 -0.17191 0)
(7.5081 -0.101398 0)
(7.879 -0.309291 0)
(8.51229 -0.3776 0)
(9.13124 -0.696351 0)
(9.93376 0.747549 0)
(10.6158 0.819597 0)
(10.4546 0.50021 0)
(10.0946 0.307551 0)
(9.61276 0.184825 0)
(9.40587 0.10285 0)
(9.13267 0.0382109 0)
(9.1403 -0.00372108 0)
(9.01412 -0.0330926 0)
(9.13857 -0.0729764 0)
(9.13203 -0.0902454 0)
(9.32936 -0.144421 0)
(9.43999 -0.164575 0)
(9.70446 -0.246136 0)
(9.9442 -0.299755 0)
(10.3174 -0.451325 0)
(10.6881 -0.637275 0)
(11.1906 -1.10438 0)
(9.80644 0.546886 0)
(10.69 0.729584 0)
(10.9907 0.497272 0)
(11.0152 0.340246 0)
(10.8748 0.235467 0)
(10.7773 0.151038 0)
(10.694 0.0871069 0)
(10.6449 0.022026 0)
(10.6526 -0.0157605 0)
(10.6456 -0.0776332 0)
(10.7264 -0.109208 0)
(10.7738 -0.174539 0)
(10.9305 -0.22152 0)
(11.0393 -0.303177 0)
(11.2703 -0.413197 0)
(11.4492 -0.559304 0)
(11.7332 -0.824601 0)
(11.94 -1.18152 0)
(9.82166 0.443824 0)
(10.5239 0.618838 0)
(10.8797 0.46814 0)
(11.0263 0.299327 0)
(11.0283 0.226961 0)
(11.0398 0.127063 0)
(11.0396 0.0935893 0)
(11.0821 -0.000558713 0)
(11.1177 -0.0185429 0)
(11.1716 -0.110661 0)
(11.2252 -0.126849 0)
(11.304 -0.22646 0)
(11.4009 -0.267668 0)
(11.5229 -0.394718 0)
(11.6662 -0.496339 0)
(11.8184 -0.698496 0)
(11.989 -0.935924 0)
(12.0885 -1.27175 0)
(9.84857 0.326162 0)
(10.3768 0.51751 0)
(10.7125 0.419876 0)
(10.8564 0.282119 0)
(10.9181 0.194566 0)
(10.9397 0.124047 0)
(10.9832 0.0643055 0)
(11.0307 0.00337985 0)
(11.096 -0.0553782 0)
(11.1543 -0.114504 0)
(11.2268 -0.176585 0)
(11.3015 -0.25099 0)
(11.3933 -0.338139 0)
(11.4951 -0.448684 0)
(11.612 -0.587786 0)
(11.7272 -0.777075 0)
(11.8244 -1.00512 0)
(11.8814 -1.30137 0)
(9.8135 0.239603 0)
(10.2198 0.398578 0)
(10.4985 0.366106 0)
(10.6333 0.231245 0)
(10.7131 0.158762 0)
(10.745 0.0754649 0)
(10.7928 0.0321257 0)
(10.837 -0.0405578 0)
(10.9027 -0.086069 0)
(10.9612 -0.1597 0)
(11.037 -0.217024 0)
(11.1081 -0.304203 0)
(11.1965 -0.3922 0)
(11.2841 -0.518166 0)
(11.3818 -0.661881 0)
(11.4635 -0.847251 0)
(11.5345 -1.06517 0)
(11.5716 -1.32813 0)
(9.86602 0.19587 0)
(10.2159 0.344616 0)
(10.4436 0.326023 0)
(10.5664 0.230523 0)
(10.6456 0.142683 0)
(10.6845 0.0710847 0)
(10.7287 0.0127584 0)
(10.7709 -0.0467164 0)
(10.8302 -0.107751 0)
(10.8868 -0.17604 0)
(10.9583 -0.248908 0)
(11.0271 -0.335938 0)
(11.1072 -0.43638 0)
(11.1836 -0.559881 0)
(11.2637 -0.707594 0)
(11.3285 -0.886908 0)
(11.3822 -1.09168 0)
(11.4024 -1.31837 0)
(9.82239 0.13814 0)
(10.132 0.27089 0)
(10.3273 0.274818 0)
(10.4417 0.198759 0)
(10.5266 0.117772 0)
(10.5752 0.0399361 0)
(10.6256 -0.0158877 0)
(10.6717 -0.0775106 0)
(10.7318 -0.137046 0)
(10.7885 -0.208598 0)
(10.8559 -0.284355 0)
(10.9192 -0.377473 0)
(10.9882 -0.481422 0)
(11.0515 -0.60893 0)
(11.1172 -0.755275 0)
(11.1672 -0.927554 0)
(11.2018 -1.11613 0)
(11.2023 -1.32423 0)
(9.83331 0.108336 0)
(10.0921 0.214279 0)
(10.2498 0.225264 0)
(10.3549 0.170341 0)
(10.4405 0.0966723 0)
(10.498 0.0209861 0)
(10.5497 -0.0390434 0)
(10.5949 -0.100618 0)
(10.65 -0.161957 0)
(10.704 -0.23439 0)
(10.7659 -0.313847 0)
(10.8237 -0.410078 0)
(10.8842 -0.516646 0)
(10.9362 -0.64316 0)
(10.9863 -0.785663 0)
(11.0176 -0.949094 0)
(11.0355 -1.12436 0)
(11.0277 -1.31242 0)
(9.8926 0.0872082 0)
(10.1234 0.162839 0)
(10.247 0.175829 0)
(10.3361 0.131684 0)
(10.4167 0.0680321 0)
(10.4801 -0.00489173 0)
(10.5352 -0.0690142 0)
(10.5821 -0.132226 0)
(10.6318 -0.195658 0)
(10.6794 -0.269422 0)
(10.7294 -0.351314 0)
(10.7752 -0.449024 0)
(10.8192 -0.557727 0)
(10.8543 -0.681356 0)
(10.8834 -0.817316 0)
(10.897 -0.96953 0)
(10.8965 -1.13062 0)
(10.8753 -1.29868 0)
(9.80133 0.0558002 0)
(10.0152 0.110906 0)
(10.118 0.121552 0)
(10.1935 0.0860868 0)
(10.2681 0.0320395 0)
(10.3303 -0.0352524 0)
(10.3867 -0.0986374 0)
(10.4326 -0.164224 0)
(10.479 -0.229291 0)
(10.5209 -0.304037 0)
(10.564 -0.385383 0)
(10.6014 -0.48105 0)
(10.6375 -0.586567 0)
(10.6634 -0.704986 0)
(10.6832 -0.832349 0)
(10.6891 -0.971334 0)
(10.6826 -1.11724 0)
(10.6581 -1.26717 0)
(9.83709 0.053131 0)
(10.0255 0.0724453 0)
(10.1074 0.068462 0)
(10.1629 0.0363525 0)
(10.2233 -0.0107474 0)
(10.2781 -0.0710473 0)
(10.332 -0.13183 0)
(10.3765 -0.198089 0)
(10.4199 -0.263898 0)
(10.4561 -0.339095 0)
(10.491 -0.420062 0)
(10.5192 -0.513689 0)
(10.5466 -0.615699 0)
(10.5642 -0.728696 0)
(10.5754 -0.847072 0)
(10.5734 -0.975267 0)
(10.5591 -1.10729 0)
(10.5266 -1.23709 0)
(9.8383 0.0335461 0)
(10.0293 0.0281725 0)
(10.1012 0.0201476 0)
(10.1369 -0.00841526 0)
(10.1774 -0.0496819 0)
(10.2189 -0.107066 0)
(10.2654 -0.165721 0)
(10.3066 -0.231828 0)
(10.3457 -0.298182 0)
(10.3768 -0.374083 0)
(10.4039 -0.453643 0)
(10.4221 -0.543408 0)
(10.4362 -0.637489 0)
(10.4406 -0.741818 0)
(10.4383 -0.848192 0)
(10.4239 -0.961174 0)
(10.3974 -1.07247 0)
(10.3564 -1.18935 0)
(9.88871 0.0109179 0)
(10.0646 0.00040818 0)
(10.1221 -0.015317 0)
(10.1467 -0.0477308 0)
(10.1757 -0.0881879 0)
(10.2078 -0.142959 0)
(10.2446 -0.19995 0)
(10.2784 -0.265106 0)
(10.3076 -0.330337 0)
(10.3286 -0.403014 0)
(10.3427 -0.476969 0)
(10.3481 -0.559192 0)
(10.3482 -0.643089 0)
(10.3406 -0.735532 0)
(10.3268 -0.828536 0)
(10.3038 -0.926872 0)
(10.273 -1.02656 0)
(10.2295 -1.13629 0)
(9.81052 -0.00123449 0)
(9.98125 -0.0244021 0)
(10.032 -0.0544416 0)
(10.0482 -0.0919739 0)
(10.0665 -0.131015 0)
(10.0915 -0.179261 0)
(10.1207 -0.230015 0)
(10.1476 -0.288298 0)
(10.1684 -0.348064 0)
(10.1816 -0.414738 0)
(10.1881 -0.483068 0)
(10.1873 -0.558188 0)
(10.1803 -0.633889 0)
(10.1658 -0.715499 0)
(10.1447 -0.797032 0)
(10.116 -0.882856 0)
(10.0793 -0.964311 0)
(10.0296 -1.04483 0)
(9.76693 -0.0184023 0)
(9.93343 -0.0500263 0)
(9.97754 -0.0851305 0)
(9.98642 -0.126072 0)
(9.9989 -0.166728 0)
(10.0162 -0.214375 0)
(10.0391 -0.263224 0)
(10.0579 -0.318147 0)
(10.0733 -0.373151 0)
(10.0789 -0.433931 0)
(10.08 -0.494887 0)
(10.0714 -0.560823 0)
(10.0582 -0.62509 0)
(10.0345 -0.692638 0)
(10.0068 -0.758256 0)
(9.97067 -0.826352 0)
(9.93011 -0.891169 0)
(9.8802 -0.958224 0)
(9.8347 -0.0165483 0)
(9.99398 -0.0709176 0)
(10.0334 -0.117571 0)
(10.0431 -0.160961 0)
(10.0577 -0.198012 0)
(10.0745 -0.238334 0)
(10.0938 -0.279233 0)
(10.1067 -0.325764 0)
(10.1138 -0.371407 0)
(10.109 -0.420959 0)
(10.099 -0.469601 0)
(10.0807 -0.522015 0)
(10.0597 -0.573054 0)
(10.0301 -0.626549 0)
(9.99737 -0.677893 0)
(9.95803 -0.731316 0)
(9.91607 -0.783076 0)
(9.8659 -0.835704 0)
(9.86424 -0.0273892 0)
(10.0294 -0.094863 0)
(10.0701 -0.148707 0)
(10.077 -0.195635 0)
(10.086 -0.232568 0)
(10.0972 -0.266309 0)
(10.1089 -0.29673 0)
(10.1158 -0.331485 0)
(10.1151 -0.36704 0)
(10.1031 -0.407447 0)
(10.0828 -0.447954 0)
(10.0558 -0.492062 0)
(10.0251 -0.535116 0)
(9.98842 -0.579703 0)
(9.94751 -0.621616 0)
(9.90184 -0.664248 0)
(9.85323 -0.703832 0)
(9.79853 -0.744167 0)
(9.81703 -0.0425012 0)
(9.99959 -0.110546 0)
(10.0519 -0.168693 0)
(10.0666 -0.217697 0)
(10.0796 -0.252468 0)
(10.0925 -0.278823 0)
(10.1041 -0.298758 0)
(10.1093 -0.321491 0)
(10.1066 -0.345893 0)
(10.0921 -0.375107 0)
(10.0685 -0.404484 0)
(10.0366 -0.436563 0)
(10.001 -0.467555 0)
(9.95934 -0.500185 0)
(9.91447 -0.530635 0)
(9.86431 -0.562368 0)
(9.81172 -0.592395 0)
(9.75334 -0.623999 0)
(9.87273 -0.0732116 0)
(10.0508 -0.152722 0)
(10.1065 -0.210826 0)
(10.1299 -0.254524 0)
(10.1512 -0.280631 0)
(10.1688 -0.297473 0)
(10.1797 -0.308162 0)
(10.1802 -0.32103 0)
(10.1716 -0.336075 0)
(10.1519 -0.356103 0)
(10.1248 -0.376759 0)
(10.0906 -0.400026 0)
(10.0539 -0.422609 0)
(10.0123 -0.44703 0)
(9.96799 -0.470171 0)
(9.91816 -0.494769 0)
(9.86533 -0.518039 0)
(9.80646 -0.542576 0)
(9.79765 -0.0697204 0)
(9.99348 -0.178077 0)
(10.0677 -0.250407 0)
(10.1116 -0.28892 0)
(10.1515 -0.299909 0)
(10.1809 -0.300694 0)
(10.1967 -0.298192 0)
(10.1966 -0.301272 0)
(10.1847 -0.309344 0)
(10.1616 -0.323248 0)
(10.1319 -0.337948 0)
(10.0953 -0.35421 0)
(10.0561 -0.368939 0)
(10.0119 -0.384701 0)
(9.96499 -0.399284 0)
(9.91258 -0.415396 0)
(9.85735 -0.430758 0)
(9.79663 -0.447855 0)
(9.95341 -0.108124 0)
(10.1578 -0.245492 0)
(10.2506 -0.32062 0)
(10.3098 -0.343324 0)
(10.3523 -0.336331 0)
(10.3753 -0.322011 0)
(10.3801 -0.309508 0)
(10.3673 -0.305081 0)
(10.3429 -0.305431 0)
(10.3092 -0.309892 0)
(10.2707 -0.314872 0)
(10.227 -0.321499 0)
(10.1817 -0.327956 0)
(10.1323 -0.336724 0)
(10.0809 -0.3459 0)
(10.0249 -0.357381 0)
(9.96659 -0.368757 0)
(9.90369 -0.381721 0)
(9.85755 -0.1081 0)
(10.1058 -0.289611 0)
(10.2399 -0.362204 0)
(10.3305 -0.363328 0)
(10.3892 -0.334124 0)
(10.4161 -0.30226 0)
(10.4164 -0.279707 0)
(10.3974 -0.26883 0)
(10.3678 -0.264211 0)
(10.3317 -0.264198 0)
(10.2924 -0.265388 0)
(10.2502 -0.26807 0)
(10.2065 -0.270833 0)
(10.1591 -0.275414 0)
(10.1085 -0.280285 0)
(10.0527 -0.286917 0)
(9.99314 -0.293248 0)
(9.92819 -0.300768 0)
(9.85971 -0.184319 0)
(10.1606 -0.391886 0)
(10.3434 -0.451575 0)
(10.4591 -0.428066 0)
(10.5211 -0.373925 0)
(10.5395 -0.326535 0)
(10.53 -0.294078 0)
(10.5053 -0.273859 0)
(10.4731 -0.260453 0)
(10.4348 -0.251859 0)
(10.3925 -0.245798 0)
(10.3458 -0.242085 0)
(10.2961 -0.239768 0)
(10.2426 -0.239421 0)
(10.1863 -0.239647 0)
(10.1258 -0.240792 0)
(10.0625 -0.241463 0)
(9.99449 -0.242666 0)
(9.77272 -0.233013 0)
(10.1668 -0.478867 0)
(10.4357 -0.51255 0)
(10.5948 -0.449812 0)
(10.6658 -0.372313 0)
(10.6758 -0.314519 0)
(10.6546 -0.274786 0)
(10.6193 -0.246985 0)
(10.5767 -0.227195 0)
(10.5292 -0.212747 0)
(10.4772 -0.202111 0)
(10.4217 -0.194389 0)
(10.3629 -0.189063 0)
(10.3013 -0.185833 0)
(10.2368 -0.183498 0)
(10.1698 -0.181519 0)
(10.0995 -0.178769 0)
(10.0255 -0.175746 0)
(9.85134 -0.333755 0)
(10.3577 -0.614216 0)
(10.6848 -0.605469 0)
(10.8329 -0.495431 0)
(10.8561 -0.399844 0)
(10.8077 -0.331214 0)
(10.7323 -0.280862 0)
(10.6459 -0.241636 0)
(10.5586 -0.212698 0)
(10.4694 -0.190406 0)
(10.3819 -0.174593 0)
(10.2933 -0.162196 0)
(10.2066 -0.153615 0)
(10.119 -0.146577 0)
(10.0333 -0.141165 0)
(9.94664 -0.135371 0)
(9.86098 -0.12904 0)
(9.77266 -0.121271 0)
(9.85174 -0.442861 0)
(10.4792 -0.761495 0)
(10.7068 -0.663207 0)
(10.648 -0.489144 0)
(10.4508 -0.361172 0)
(10.2149 -0.274084 0)
(9.99021 -0.214684 0)
(9.78468 -0.171251 0)
(9.60526 -0.141348 0)
(9.44257 -0.11808 0)
(9.30176 -0.102588 0)
(9.16974 -0.089244 0)
(9.0554 -0.0811203 0)
(8.94348 -0.0729371 0)
(8.84732 -0.0683836 0)
(8.7492 -0.061867 0)
(8.6655 -0.0564298 0)
(8.57518 -0.0465929 0)
(9.88196 -0.681528 0)
(9.95527 -0.910339 0)
(9.44914 -0.693521 0)
(8.78143 -0.459548 0)
(8.18023 -0.285758 0)
(7.71409 -0.169403 0)
(7.37109 -0.100129 0)
(7.11719 -0.0615396 0)
(6.92816 -0.0417694 0)
(6.77959 -0.0302987 0)
(6.6663 -0.0252521 0)
(6.56734 -0.0210051 0)
(6.49273 -0.0207237 0)
(6.41654 -0.0184504 0)
(6.36401 -0.0200276 0)
(6.29768 -0.0174782 0)
(6.26174 -0.0190913 0)
(6.19478 -0.0139065 0)
(8.51122 -0.392806 0)
(6.38047 -0.344572 0)
(4.77846 -0.127842 0)
(3.81943 -0.0159175 0)
(3.32368 0.023625 0)
(3.08105 0.0317461 0)
(2.96112 0.0267794 0)
(2.89681 0.0188633 0)
(2.85639 0.0123171 0)
(2.82637 0.00797464 0)
(2.80185 0.00532855 0)
(2.77952 0.00387797 0)
(2.76054 0.0029146 0)
(2.73975 0.00301261 0)
(2.72576 0.00145609 0)
(2.70108 0.00399436 0)
(2.69573 -0.0051235 0)
(2.64679 0.0113312 0)
(-0.00369306 0.00257896 0)
(-0.000461761 -0.0052562 0)
(0.00782732 -0.00725426 0)
(0.0162847 -0.00846116 0)
(0.0264733 -0.00987742 0)
(0.0380451 -0.0115716 0)
(0.0516957 -0.0135334 4.22168e-20)
(0.0676109 -0.0158112 -4.1918e-20)
(0.0861362 -0.0183635 0)
(0.107548 -0.021147 -4.13306e-20)
(0.13222 -0.0241299 0)
(0.160632 -0.0273391 0)
(0.192776 -0.0307462 0)
(0.228957 -0.0342682 4.01946e-20)
(0.269369 -0.0378963 0)
(0.314352 -0.0415591 0)
(0.363929 -0.0452833 -3.93741e-20)
(0.418133 -0.0489008 0)
(0.477092 -0.0524889 0)
(0.54065 -0.0558881 0)
(0.608751 -0.0591207 3.83143e-20)
(0.681317 -0.0620844 0)
(0.758198 -0.064731 3.7795e-20)
(0.838921 -0.0671132 0)
(0.923229 -0.0691131 0)
(1.01075 -0.0706888 3.70224e-20)
(1.10113 -0.0718413 0)
(1.19392 -0.0725977 -3.6508e-20)
(1.28859 -0.0729138 0)
(1.38473 -0.0727924 3.59916e-20)
(1.48183 -0.0722645 0)
(1.57943 -0.0713453 0)
(1.67708 -0.0700483 0)
(1.77434 -0.0684027 0)
(1.87078 -0.0664508 0)
(1.96601 -0.0642304 -3.44149e-20)
(2.05965 -0.0617715 0)
(2.15141 -0.0591066 6.77565e-20)
(2.24098 -0.0562793 0)
(2.32807 -0.0533294 -6.66726e-20)
(2.4125 -0.0502877 0)
(2.49408 -0.0471855 0)
(2.57265 -0.044058 6.50308e-20)
(2.64808 -0.0409357 0)
(2.72028 -0.0378404 6.39287e-20)
(2.78922 -0.0347921 -6.33763e-20)
(2.85485 -0.0318145 0)
(2.91716 -0.028928 -6.22701e-20)
(2.97615 -0.0261442 -6.1717e-20)
(3.03188 -0.0234706 0)
(3.08439 -0.0209174 0)
(3.13375 -0.0184956 0)
(3.18001 -0.0162101 0)
(3.22327 -0.0140598 0)
(3.26365 -0.0120434 5.84141e-20)
(3.30123 -0.010163 0)
(3.33612 -0.00841961 -5.73246e-20)
(3.36842 -0.00680873 0)
(3.39826 -0.00532299 0)
(3.42576 -0.00395724 5.5706e-20)
(3.45102 -0.002709 0)
(3.47415 -0.00157399 -5.4639e-20)
(3.49528 -0.000543931 0)
(3.5145 0.000390161 0)
(3.53194 0.001234 0)
(3.54768 0.00199147 5.25377e-20)
(3.56183 0.00266866 0)
(3.57449 0.00327399 0)
(3.58574 0.00381518 5.09925e-20)
(3.59569 0.00429604 0)
(3.6044 0.00471823 4.99779e-20)
(3.61197 0.00508638 0)
(3.61847 0.00539554 0)
(3.62396 0.00563853 0)
(3.62852 0.00582985 -4.79869e-20)
(3.63219 0.00598438 0)
(3.63504 0.00611119 0)
(3.63714 0.00621494 -4.65277e-20)
(3.63853 0.00629791 -4.60477e-20)
(3.63925 0.00636126 0)
(3.63936 0.00640766 -4.50977e-20)
(3.6389 0.00643901 0)
(3.63789 0.00645957 -8.8321e-20)
(3.63639 0.00646911 0)
(3.63441 0.00647438 -8.64725e-20)
(3.63199 0.00647986 0)
(3.62914 0.00648152 8.46495e-20)
(3.62591 0.00647683 0)
(3.62231 0.00646578 0)
(3.61838 0.00644895 0)
(3.61414 0.00642721 -8.10792e-20)
(3.60959 0.00640112 0)
(3.60476 0.00637115 7.93314e-20)
(3.59967 0.00633779 0)
(3.59434 0.00630163 -7.76079e-20)
(3.58878 0.006263 -7.67552e-20)
(3.58299 0.00622228 -7.59085e-20)
(3.57701 0.00618018 0)
(3.57083 0.00613741 0)
(3.56447 0.00609431 0)
(3.55795 0.00605085 0)
(3.55126 0.00600667 0)
(3.54441 0.0059614 0)
(3.53742 0.00591515 0)
(3.5303 0.00586857 0)
(3.52305 0.00582241 6.85499e-20)
(3.51568 0.00577676 6.77605e-20)
(3.50819 0.00573095 0)
(3.50059 0.00568418 0)
(3.49288 0.00563639 0)
(3.48508 0.00558837 6.46572e-20)
(3.47719 0.00554108 0)
(3.46921 0.00549482 0)
(3.46115 0.00544898 0)
(3.453 0.0054027 0)
(3.44477 0.00535564 -6.08969e-20)
(3.43647 0.00530822 0)
(3.42811 0.00526122 0)
(3.41968 0.00521519 5.87018e-20)
(3.41118 0.00517007 -5.79801e-20)
(3.40262 0.00512532 0)
(3.39401 0.00508033 -5.65512e-20)
(3.38533 0.00503472 0)
(3.3766 0.00498856 5.51415e-20)
(3.36782 0.00494237 0)
(3.35899 0.0048968 0)
(3.35012 0.00485231 0)
(3.3412 0.00480883 0)
(3.33223 0.00476577 0)
(3.32321 0.00472235 -1.02048e-19)
(3.31415 0.00467818 -1.00707e-19)
(3.30505 0.0046335 0)
(3.29592 0.00458911 0)
(3.28674 0.00454577 0)
(3.27753 0.00450358 9.54307e-20)
(3.26828 0.00446197 0)
(3.25899 0.00442003 0)
(3.24966 0.00437725 0)
(3.2403 0.00433392 9.02899e-20)
(3.2309 0.00429083 -8.90253e-20)
(3.22148 0.00424858 0)
(3.21202 0.0042072 0)
(3.20252 0.00416621 -8.52794e-20)
(3.193 0.004125 -8.40465e-20)
(3.18343 0.00408331 0)
(3.17384 0.00404134 0)
(3.16422 0.00399962 8.03939e-20)
(3.15456 0.00395866 -7.91914e-20)
(3.14488 0.00391865 0)
(3.13516 0.0038792 0)
(3.1254 0.0038399 -7.56283e-20)
(3.11562 0.00380061 0)
(3.10579 0.00376145 0)
(3.09593 0.00372257 -7.21298e-20)
(3.08602 0.00368426 0)
(3.07608 0.00364712 -6.98325e-20)
(3.0661 0.00361136 0)
(3.05606 0.0035773 0)
(3.04596 0.0035451 0)
(3.03579 0.00351466 6.53193e-20)
(3.02554 0.00348656 0)
(3.01519 0.00346105 0)
(3.00473 0.00344013 0)
(2.99413 0.00342206 0)
(2.98334 0.00341691 0)
(2.97238 0.00340591 0)
(2.96105 0.00343863 5.76762e-20)
(2.94958 0.00341686 5.66111e-20)
(2.9372 0.00355289 0)
(2.92518 0.00345902 0)
(2.91051 0.00384597 0)
(2.89826 0.00358904 -5.24244e-20)
(2.87852 0.00441784 0)
(2.86663 0.00407388 1.00767e-19)
(2.83708 0.00542843 -9.87536e-20)
(2.82338 0.0054589 -9.67822e-20)
(2.77923 0.00842785 9.48313e-20)
(2.74404 0.00743347 -9.29499e-20)
(2.69332 0.028287 9.11126e-20)
(2.51766 0.011032 0)
(-0.0052935 0.00727891 0)
(-0.00159369 -0.0201541 0)
(0.00655104 -0.0267155 -8.68659e-20)
(0.0152874 -0.0304309 0)
(0.0256293 -0.0348075 8.56246e-20)
(0.0375172 -0.0400941 8.50143e-20)
(0.0514901 -0.0463249 4.21902e-20)
(0.0678013 -0.0535402 4.19219e-20)
(0.0870016 -0.0616388 0)
(0.109353 -0.0706462 4.13344e-20)
(0.135125 -0.080391 0)
(0.164822 -0.0908732 0)
(0.198652 -0.102024 -8.09315e-20)
(0.236911 -0.113657 -4.01985e-20)
(0.279798 -0.125705 7.98232e-20)
(0.32762 -0.138007 7.92779e-20)
(0.380589 -0.150489 3.93781e-20)
(0.438667 -0.162846 0)
(0.501986 -0.175072 0)
(0.570504 -0.186907 0)
(0.644083 -0.198261 3.83076e-20)
(0.722798 -0.208878 0)
(0.806242 -0.218708 -1.13391e-19)
(0.894065 -0.22766 0)
(0.986223 -0.235493 0)
(1.08216 -0.24217 -3.7027e-20)
(1.18141 -0.247604 0)
(1.28364 -0.251816 3.65128e-20)
(1.38836 -0.254739 7.25116e-20)
(1.49511 -0.256404 -3.59965e-20)
(1.60335 -0.256811 0)
(1.71267 -0.256029 0)
(1.82261 -0.254118 0)
(1.93273 -0.25115 6.99073e-20)
(2.04261 -0.247213 6.93782e-20)
(2.15186 -0.242402 3.44204e-20)
(2.26013 -0.236814 0)
(2.36711 -0.230546 -6.77678e-20)
(2.47249 -0.223697 0)
(2.57599 -0.216362 6.66843e-20)
(2.67743 -0.208635 0)
(2.77659 -0.200605 0)
(2.87329 -0.192355 -6.50429e-20)
(2.96741 -0.18396 0)
(3.05883 -0.175487 -1.91829e-19)
(3.14748 -0.167 6.33888e-20)
(3.23329 -0.158558 0)
(3.31619 -0.150209 6.22828e-20)
(3.39618 -0.141992 6.17298e-20)
(3.47325 -0.133946 0)
(3.5474 -0.126104 0)
(3.61864 -0.118493 0)
(3.687 -0.111129 0)
(3.75254 -0.104028 0)
(3.81528 -0.0972043 -5.84272e-20)
(3.87529 -0.0906694 -1.15763e-19)
(3.93262 -0.084427 5.73377e-20)
(3.98733 -0.0784762 0)
(4.03951 -0.0728166 -1.12512e-19)
(4.08921 -0.0674487 5.57178e-20)
(4.13652 -0.06237 0)
(4.18149 -0.0575729 5.46521e-20)
(4.22423 -0.0530476 0)
(4.26481 -0.048786 0)
(4.30329 -0.0447815 1.06141e-19)
(4.33977 -0.0410254 -5.25506e-20)
(4.37431 -0.0375059 1.04063e-19)
(4.407 -0.0342094 -1.03033e-19)
(4.43791 -0.0311266 -5.10053e-20)
(4.46711 -0.0282487 0)
(4.49468 -0.0255669 -4.99905e-20)
(4.52069 -0.0230723 0)
(4.5452 -0.0207527 0)
(4.56828 -0.0186022 0)
(4.59 -0.0166116 -4.79973e-20)
(4.61043 -0.0147674 0)
(4.62962 -0.0130574 -9.4044e-20)
(4.64763 -0.0114702 1.39617e-19)
(4.66452 -0.00999859 4.60597e-20)
(4.68034 -0.0086337 0)
(4.69514 -0.00736973 4.51094e-20)
(4.70898 -0.0061969 0)
(4.72191 -0.00511091 8.83441e-20)
(4.73397 -0.00410708 0)
(4.74521 -0.00318275 8.64952e-20)
(4.75566 -0.00233778 -1.71158e-19)
(4.76536 -0.0015618 -8.46719e-20)
(4.77435 -0.000844841 0)
(4.78267 -0.00018164 0)
(4.79035 0.000429458 0)
(4.79744 0.000991889 8.11009e-20)
(4.80395 0.00151127 0)
(4.80992 0.00199144 -7.93527e-20)
(4.81539 0.00243486 0)
(4.82037 0.00284426 2.32885e-19)
(4.82489 0.00322107 7.67761e-20)
(4.82898 0.00356649 7.59292e-20)
(4.83265 0.00388343 0)
(4.83595 0.00417496 0)
(4.83887 0.00444269 0)
(4.84145 0.00468774 0)
(4.8437 0.00491163 0)
(4.84563 0.00511616 1.4194e-19)
(4.84727 0.00530299 1.40328e-19)
(4.84863 0.00547344 0)
(4.84973 0.0056285 -6.85691e-20)
(4.85059 0.00576906 -6.77795e-20)
(4.8512 0.00589591 0)
(4.85158 0.00600983 -1.32432e-19)
(4.85175 0.00611174 0)
(4.85172 0.00620278 6.46742e-20)
(4.8515 0.00628422 0)
(4.85111 0.00635695 0)
(4.85054 0.00642127 -1.24806e-19)
(4.8498 0.00647705 0)
(4.8489 0.0065245 6.09147e-20)
(4.84786 0.0065645 0)
(4.84668 0.00659843 0)
(4.84536 0.00662743 5.8718e-20)
(4.84392 0.00665194 5.79974e-20)
(4.84235 0.00667157 0)
(4.84066 0.00668572 -5.65671e-20)
(4.83886 0.00669424 0)
(4.83696 0.00669771 5.51571e-20)
(4.83495 0.00669722 1.0892e-19)
(4.83284 0.00669399 0)
(4.83064 0.00668876 0)
(4.82835 0.00668163 0)
(4.82597 0.00667215 0)
(4.8235 0.0066597 1.0208e-19)
(4.82095 0.00664399 3.02215e-19)
(4.81831 0.00662544 0)
(4.8156 0.00660505 0)
(4.81282 0.0065839 0)
(4.80996 0.00656247 -9.54617e-20)
(4.80703 0.00654034 0)
(4.80402 0.00651658 0)
(4.80094 0.00649049 1.83185e-19)
(4.79779 0.00646224 9.03185e-20)
(4.79458 0.0064328 8.90553e-20)
(4.79129 0.00640326 0)
(4.78795 0.00637408 0)
(4.78453 0.00634483 8.53088e-20)
(4.78105 0.00631463 -8.40742e-20)
(4.7775 0.00628291 0)
(4.77388 0.00624995 0)
(4.7702 0.00621673 -8.04225e-20)
(4.76646 0.0061843 2.37658e-19)
(4.76265 0.00615327 0)
(4.75877 0.00612354 0)
(4.75482 0.00609445 7.56561e-20)
(4.75079 0.00606559 0)
(4.7467 0.00603715 1.46631e-19)
(4.74252 0.00600987 -7.21558e-20)
(4.73827 0.0059847 0)
(4.73393 0.00596288 6.98594e-20)
(4.72951 0.00594571 1.3744e-19)
(4.72499 0.00593443 0)
(4.72036 0.0059305 0)
(4.71561 0.00593537 -6.53455e-20)
(4.71072 0.00595076 0)
(4.70568 0.0059799 1.26256e-19)
(4.70045 0.00602723 0)
(4.69502 0.00609508 0)
(4.68927 0.00620176 0)
(4.68338 0.0063257 0)
(4.6767 0.00655852 -5.77012e-20)
(4.6704 0.00672139 -5.6636e-20)
(4.66166 0.00729009 0)
(4.65571 0.00729795 0)
(4.64215 0.00887508 0)
(4.63844 0.00798204 5.24486e-20)
(4.61533 0.0123792 0)
(4.61483 0.00866984 -1.00815e-19)
(4.57874 0.0201199 9.88009e-20)
(4.573 0.00949259 9.68292e-20)
(4.52909 0.0383935 9.48502e-20)
(4.48623 0.0131696 9.2996e-20)
(4.45292 0.0909329 9.10496e-20)
(4.30019 0.0580533 0)
(-0.0073923 0.0182572 0)
(-0.00703038 -0.0299846 0)
(-0.00159925 -0.0413544 8.68658e-20)
(0.00432707 -0.0475266 8.6187e-20)
(0.0119011 -0.054829 -8.56246e-20)
(0.0210707 -0.0637666 -8.50143e-20)
(0.0323535 -0.0743676 -5.18105e-23)
(0.0461531 -0.0866473 0)
(0.0628493 -0.100451 0)
(0.0828723 -0.11582 0)
(0.106664 -0.132554 0)
(0.134514 -0.150548 0)
(0.166792 -0.169665 2.42711e-19)
(0.203811 -0.189686 0)
(0.245737 -0.210431 -7.98233e-20)
(0.292957 -0.231601 -7.9278e-20)
(0.345731 -0.253098 0)
(0.404007 -0.274493 0)
(0.46783 -0.295536 0)
(0.537206 -0.316011 0)
(0.612087 -0.335573 -7.66263e-20)
(0.692324 -0.35399 0)
(0.777516 -0.370993 7.55915e-20)
(0.86751 -0.386371 0)
(0.961985 -0.399843 0)
(1.0603 -0.411459 0)
(1.16205 -0.420902 1.47073e-19)
(1.26677 -0.428225 0)
(1.37393 -0.433394 -7.2512e-20)
(1.48305 -0.43641 1.43998e-19)
(1.59357 -0.43733 0)
(1.70498 -0.43626 0)
(1.81684 -0.433307 0)
(1.92871 -0.428607 -6.9908e-20)
(2.04016 -0.422314 -6.93789e-20)
(2.15078 -0.414595 0)
(2.26024 -0.405615 0)
(2.36825 -0.395534 1.35562e-19)
(2.47453 -0.384517 1.3448e-19)
(2.57881 -0.372728 -1.33393e-19)
(2.6809 -0.360322 0)
(2.78065 -0.347436 0)
(2.87792 -0.3342 0)
(2.97256 -0.320738 0)
(3.06451 -0.307161 1.27891e-19)
(3.1537 -0.293565 1.26793e-19)
(3.2401 -0.280035 -1.25686e-19)
(3.32368 -0.266646 0)
(3.40441 -0.253464 0)
(3.48232 -0.240548 0)
(3.55742 -0.22794 0)
(3.62974 -0.215675 1.20155e-19)
(3.69932 -0.203785 0)
(3.76619 -0.192296 0)
(3.83041 -0.181227 1.16859e-19)
(3.89203 -0.170587 1.15766e-19)
(3.95111 -0.160381 0)
(4.00773 -0.150613 -2.27188e-19)
(4.06193 -0.141286 1.12516e-19)
(4.11378 -0.132399 -1.11441e-19)
(4.16336 -0.123941 0)
(4.21073 -0.115902 0)
(4.25597 -0.108276 0)
(4.29914 -0.101052 0)
(4.34032 -0.0942207 -1.06146e-19)
(4.37956 -0.0877644 -2.10203e-19)
(4.41695 -0.0816673 -1.04067e-19)
(4.45255 -0.0759166 1.03037e-19)
(4.48643 -0.0705006 0)
(4.51865 -0.0654064 -2.01986e-19)
(4.54927 -0.0606161 -1.99963e-19)
(4.57836 -0.0561124 -1.97952e-19)
(4.60599 -0.0518796 1.95955e-19)
(4.63222 -0.0478994 0)
(4.65709 -0.0441611 2.87999e-19)
(4.68068 -0.0406534 0)
(4.70304 -0.0373645 -9.40447e-20)
(4.72422 -0.0342804 -9.30821e-20)
(4.74426 -0.031391 0)
(4.76324 -0.0286822 0)
(4.78118 -0.0261457 -1.8044e-19)
(4.79815 -0.0237695 0)
(4.81419 -0.0215487 -1.76691e-19)
(4.82933 -0.0194775 0)
(4.84363 -0.0175501 1.72994e-19)
(4.85711 -0.0157623 3.42331e-19)
(4.86983 -0.0141004 0)
(4.88184 -0.0125502 0)
(4.89315 -0.0111043 0)
(4.90381 -0.00975695 1.63973e-19)
(4.91384 -0.00850244 0)
(4.92328 -0.00733366 1.60452e-19)
(4.93216 -0.00624359 0)
(4.94052 -0.00522773 0)
(4.94837 -0.00428227 -3.10527e-19)
(4.95574 -0.00340235 0)
(4.96266 -0.00258409 -1.51863e-19)
(4.96916 -0.00182383 0)
(4.97526 -0.00111759 -1.48511e-19)
(4.98097 -0.00046225 0)
(4.98633 0.000145235 0)
(4.99135 0.000708263 0)
(4.99604 0.00123024 -4.25844e-19)
(5.00044 0.00171405 -1.40337e-19)
(5.00455 0.00216182 0)
(5.0084 0.00257513 0)
(5.01199 0.0029557 0)
(5.01535 0.00330574 0)
(5.01847 0.00362786 1.32441e-19)
(5.02139 0.0039245 -2.61785e-19)
(5.02411 0.00419756 -1.29358e-19)
(5.02665 0.00444834 2.55663e-19)
(5.02901 0.00467777 2.52634e-19)
(5.03121 0.00488673 1.24814e-19)
(5.03325 0.00507637 0)
(5.03514 0.00524836 2.4367e-19)
(5.0369 0.00540472 0)
(5.03853 0.00554728 -2.37796e-19)
(5.04004 0.00567721 -1.17445e-19)
(5.04144 0.00579488 0)
(5.04274 0.0059001 2.29133e-19)
(5.04393 0.0059929 1.13143e-19)
(5.04503 0.00607414 0)
(5.04604 0.00614547 1.10321e-19)
(5.04697 0.00620873 -3.26781e-19)
(5.04782 0.00626523 0)
(5.04861 0.00631537 0)
(5.04933 0.0063588 0)
(5.04999 0.00639514 0)
(5.05058 0.0064244 -2.04172e-19)
(5.05112 0.00644734 -2.01492e-19)
(5.0516 0.00646525 0)
(5.05204 0.00647951 0)
(5.05243 0.00649092 0)
(5.05278 0.00649942 0)
(5.05309 0.00650432 0)
(5.05335 0.00650494 0)
(5.05358 0.00650132 -1.832e-19)
(5.05377 0.00649444 -1.7032e-24)
(5.05392 0.00648573 0)
(5.05405 0.00647624 0)
(5.05414 0.00646602 -1.73111e-19)
(5.05421 0.00645418 0)
(5.05424 0.00643967 1.68165e-19)
(5.05424 0.0064223 1.65713e-19)
(5.05421 0.0064031 0)
(5.05416 0.00638376 0)
(5.05408 0.00636562 -1.58453e-19)
(5.05397 0.00634914 -3.12123e-19)
(5.05384 0.00633394 0)
(5.05368 0.00631924 0)
(5.05348 0.00630457 0)
(5.05325 0.00629061 -1.46646e-19)
(5.05298 0.00627892 1.44328e-19)
(5.05268 0.00627129 0)
(5.05234 0.0062694 2.79462e-19)
(5.05196 0.00627513 1.37452e-19)
(5.05152 0.00629034 -2.7038e-19)
(5.05102 0.00631725 0)
(5.05045 0.00635889 0)
(5.04978 0.00641843 -2.56958e-19)
(5.04901 0.0065025 -1.2627e-19)
(5.04812 0.00661545 0)
(5.04705 0.00677297 0)
(5.04579 0.00697223 0)
(5.04429 0.00725979 0)
(5.04241 0.00760253 -2.30826e-19)
(5.04029 0.00809144 0)
(5.0372 0.00876661 0)
(5.03442 0.00936992 0)
(5.0287 0.0111994 0)
(5.02553 0.0109812 0)
(5.01461 0.0166991 0)
(5.01053 0.0127684 -2.01623e-19)
(4.992 0.0284095 0)
(4.98134 0.016865 0)
(4.95617 0.0520438 -3.79461e-19)
(4.92344 0.0346044 1.85847e-19)
(4.89611 0.109535 -1.82236e-19)
(4.82474 0.110425 1.78315e-19)
(-0.0102368 0.03872 0)
(-0.0149133 -0.0319693 -1.74719e-19)
(-0.0136009 -0.0490935 0)
(-0.0119032 -0.0578053 -8.6187e-20)
(-0.00857821 -0.0682299 0)
(-0.00354329 -0.0810528 0)
(0.00372707 -0.0963352 8.42086e-20)
(0.0137344 -0.114045 0)
(0.0269367 -0.134113 0)
(0.0436925 -0.156421 0)
(0.0645532 -0.180759 0)
(0.0898598 -0.207077 0)
(0.120064 -0.234995 -3.23436e-19)
(0.155506 -0.264289 -1.60553e-19)
(0.196519 -0.294738 1.59462e-19)
(0.243285 -0.325761 0)
(0.296163 -0.357251 0)
(0.355387 -0.388673 0)
(0.420693 -0.419637 0)
(0.492189 -0.449685 0)
(0.569744 -0.478388 -1.53151e-19)
(0.653259 -0.505392 -1.52129e-19)
(0.742281 -0.530226 1.51111e-19)
(0.836462 -0.552592 -1.50097e-19)
(0.935279 -0.572248 0)
(1.03821 -0.588972 0)
(1.14479 -0.602637 -1.47073e-19)
(1.2542 -0.613092 0)
(1.36605 -0.620423 0)
(1.47969 -0.624593 -1.43998e-19)
(1.59445 -0.625773 -1.42974e-19)
(1.70984 -0.624082 -1.41939e-19)
(1.82536 -0.619709 0)
(1.94052 -0.612878 0)
(2.05485 -0.603819 1.38791e-19)
(2.16799 -0.592771 0)
(2.27961 -0.579974 0)
(2.38941 -0.565676 -1.35562e-19)
(2.49711 -0.550121 1.34519e-19)
(2.60248 -0.533531 -1.33431e-19)
(2.70537 -0.516112 0)
(2.80565 -0.498062 0)
(2.90317 -0.479571 -2.60244e-19)
(2.99785 -0.460805 0)
(3.08964 -0.441906 -2.55825e-19)
(3.17851 -0.422999 -3.80403e-19)
(3.26445 -0.404205 3.77078e-19)
(3.34742 -0.385627 -2.49175e-19)
(3.42745 -0.367348 0)
(3.50458 -0.349432 0)
(3.57885 -0.331938 -2.42529e-19)
(3.65029 -0.314919 -1.20155e-19)
(3.71894 -0.298416 0)
(3.78488 -0.282454 0)
(3.84816 -0.26705 -1.16859e-19)
(3.90885 -0.25222 -2.31538e-19)
(3.96702 -0.237978 0)
(4.02272 -0.224326 2.27189e-19)
(4.07604 -0.211263 -2.25031e-19)
(4.12705 -0.19878 2.2288e-19)
(4.17582 -0.18687 0)
(4.22242 -0.175526 0)
(4.26692 -0.164737 0)
(4.3094 -0.154488 0)
(4.34993 -0.14476 0)
(4.38857 -0.135536 2.10204e-19)
(4.4254 -0.126799 0)
(4.46048 -0.118533 0)
(4.49388 -0.110721 0)
(4.52566 -0.103343 4.03971e-19)
(4.5559 -0.0963763 1.99964e-19)
(4.58464 -0.0898033 1.97954e-19)
(4.61196 -0.0836067 -3.91909e-19)
(4.6379 -0.0777696 1.93968e-19)
(4.66253 -0.0722746 -1.92e-19)
(4.6859 -0.0671048 0)
(4.70807 -0.0622426 1.88095e-19)
(4.72909 -0.0576731 0)
(4.74901 -0.0533792 0)
(4.76788 -0.0493477 0)
(4.78575 -0.0455625 3.6088e-19)
(4.80266 -0.0420135 -1.78558e-19)
(4.81865 -0.0386878 -1.76687e-19)
(4.83377 -0.0355738 -3.49669e-19)
(4.84806 -0.0326571 -5.18981e-19)
(4.86157 -0.0299189 -1.71166e-19)
(4.87433 -0.0273502 0)
(4.88638 -0.0249444 -3.35085e-19)
(4.89776 -0.0226939 0)