/*--------------------------------*- C++ -*----------------------------------*\
| =========                 |                                                 |
| \\      /  F ield         | OpenFOAM: The Open Source CFD Toolbox           |
|  \\    /   O peration     | Version:  2.1.x                                 |
|   \\  /    A nd           | Web:      www.OpenFOAM.org                      |
|    \\/     M anipulation  |                                                 |
\*---------------------------------------------------------------------------*/
FoamFile
{
    version     2.0;
    format      ascii;
    class       volSymmTensorField;
    location    "0.005";
    object      UPrime2Mean;
}
// * * * * * * * * * * * * * * * * * * * * * * * * * * * * * * * * * * * * * //

dimensions      [0 2 -2 0 0 0 0];

internalField   nonuniform List<symmTensor> 
12225
(
(0.161679 0.00469675 0 0.00476975 0 0)
(1.16668 -0.0220458 0 0.00109288 0 0)
(1.71539 -0.00717158 0 9.48626e-05 0 0)
(2.07004 -0.00270344 0 1.9556e-05 0 0)
(2.38081 -0.00228276 0 2.67294e-05 0 0)
(2.56025 -0.00293955 0 4.16702e-05 0 0)
(2.74411 -0.00554785 0 0.000101535 0 0)
(2.83404 -0.00719115 0 0.000194134 0 0)
(2.99317 -0.00847307 0 0.000310943 0 0)
(3.13836 -0.0120255 0 0.000447788 0 0)
(3.27847 -0.0126135 0 0.000605994 0 0)
(3.57534 -0.0183056 0 0.000871354 0 0)
(3.73123 -0.0310215 0 0.00136118 0 0)
(4.26749 -0.00159638 0 0.0019742 0 0)
(4.92698 -0.187104 0 0.0127932 0 0)
(5.70913 0.286738 0 0.0368694 0 0)
(9.70548 -1.59286 0 0.38942 0 0)
(14.6145 1.1212 0 0.21755 0 0)
(0.403465 0.0972543 0 0.039721 0 0)
(0.324183 -0.0507657 0 0.0319408 0 0)
(0.596508 -0.0629804 0 0.0114112 0 0)
(0.879305 -0.0580487 0 0.00500115 0 0)
(1.33545 -0.0533412 0 0.00294879 0 0)
(1.67088 -0.0420175 0 0.00194316 0 0)
(2.13569 -0.0395128 0 0.00251305 0 0)
(2.36799 -0.0335997 0 0.00223111 0 0)
(2.56405 -0.0449998 0 0.00302426 0 0)
(3.15648 -0.0448178 0 0.00396088 0 0)
(2.84193 -0.0610521 0 0.00541326 0 0)
(4.16281 -0.111558 0 0.0114565 0 0)
(3.35652 -0.0681851 0 0.0152279 0 0)
(5.52392 -0.306354 0 0.0433675 0 0)
(4.80072 -0.108161 0 0.0561342 0 0)
(8.0957 -0.775497 0 0.178791 0 0)
(8.79241 -0.967892 0 0.223607 0 0)
(14.2747 -2.91704 0 0.961128 0 0)
(0.482785 0.0868418 0 0.0248556 0 0)
(0.236246 0.0169151 0 0.040341 0 0)
(0.253267 -0.000882635 0 0.0234691 0 0)
(0.247514 -0.0133739 0 0.0169303 0 0)
(0.333416 -0.0377807 0 0.0141074 0 0)
(0.436586 -0.0424378 0 0.0109768 0 0)
(0.692907 -0.0679403 0 0.015445 0 0)
(0.818467 -0.0591258 0 0.0128643 0 0)
(1.08176 -0.0888092 0 0.0170089 0 0)
(1.3543 -0.0922478 0 0.0248729 0 0)
(1.51757 -0.134254 0 0.0381168 0 0)
(1.95357 -0.183249 0 0.0625463 0 0)
(2.13344 -0.239262 0 0.0958059 0 0)
(2.76116 -0.356294 0 0.140039 0 0)
(3.13385 -0.459202 0 0.205817 0 0)
(4.21609 -0.814518 0 0.347612 0 0)
(4.76125 -1.11898 0 0.464074 0 0)
(6.5911 -2.86173 0 2.04162 0 0)
(0.47375 0.0591593 0 0.016768 0 0)
(0.269755 0.0178626 0 0.0377547 0 0)
(0.285037 0.0276567 0 0.0260214 0 0)
(0.311968 0.0351722 0 0.0209859 0 0)
(0.314568 0.018887 0 0.0241349 0 0)
(0.298615 0.00285074 0 0.029139 0 0)
(0.291164 -0.0216618 0 0.0407783 0 0)
(0.298313 -0.0320372 0 0.0389062 0 0)
(0.359712 -0.0645723 0 0.0504578 0 0)
(0.415771 -0.0873899 0 0.0635716 0 0)
(0.548625 -0.127466 0 0.0866623 0 0)
(0.623812 -0.157743 0 0.117216 0 0)
(0.829799 -0.217365 0 0.157254 0 0)
(0.957751 -0.265374 0 0.205123 0 0)
(1.29501 -0.423947 0 0.327339 0 0)
(1.44414 -0.487934 0 0.391372 0 0)
(1.86833 -0.95106 0 0.80986 0 0)
(2.09066 -1.40949 0 1.49335 0 0)
(0.462455 0.0570857 0 0.0139245 0 0)
(0.244305 0.0104924 0 0.0307111 0 0)
(0.271409 0.0224753 0 0.031182 0 0)
(0.313628 0.0328651 0 0.0304475 0 0)
(0.325701 0.0333276 0 0.0396293 0 0)
(0.322523 0.0198028 0 0.045474 0 0)
(0.312209 0.0152194 0 0.053186 0 0)
(0.306997 0.0015908 0 0.0654725 0 0)
(0.317269 -0.0175816 0 0.062938 0 0)
(0.318825 -0.0292961 0 0.0833606 0 0)
(0.327748 -0.0477705 0 0.0910995 0 0)
(0.363884 -0.0750703 0 0.125159 0 0)
(0.419475 -0.10506 0 0.153659 0 0)
(0.499013 -0.178382 0 0.235754 0 0)
(0.592463 -0.228357 0 0.283973 0 0)
(0.71697 -0.388209 0 0.51102 0 0)
(0.874148 -0.600239 0 0.80561 0 0)
(0.973925 -0.906132 0 1.51484 0 0)
(0.453134 0.0387487 0 0.00860552 0 0)
(0.229234 0.000862413 0 0.0249288 0 0)
(0.24904 0.00919238 0 0.0284969 0 0)
(0.276965 0.0262876 0 0.0223781 0 0)
(0.299972 0.0267354 0 0.0246615 0 0)
(0.298814 0.0234855 0 0.0290682 0 0)
(0.288985 0.0221485 0 0.0392804 0 0)
(0.29282 0.0098402 0 0.037289 0 0)
(0.291803 0.00529246 0 0.0496543 0 0)
(0.285763 -0.00419546 0 0.0580862 0 0)
(0.288423 -0.0152922 0 0.0796554 0 0)
(0.303756 -0.0305145 0 0.104369 0 0)
(0.327052 -0.062373 0 0.149546 0 0)
(0.355468 -0.0950026 0 0.19846 0 0)
(0.411969 -0.167819 0 0.315767 0 0)
(0.4911 -0.283842 0 0.492534 0 0)
(0.590439 -0.456247 0 0.79125 0 0)
(0.684993 -0.66518 0 1.52704 0 0)
(0.465776 0.0369108 0 0.00796602 0 0)
(0.230139 0.00200863 0 0.0178763 0 0)
(0.238456 0.00640888 0 0.0240095 0 0)
(0.250043 0.01836 0 0.0255682 0 0)
(0.260349 0.0228564 0 0.0284907 0 0)
(0.257559 0.015814 0 0.0319291 0 0)
(0.25621 0.0118935 0 0.0341707 0 0)
(0.259273 0.0100437 0 0.0424792 0 0)
(0.260124 -0.000433615 0 0.0434378 0 0)
(0.259304 -0.00681094 0 0.0586629 0 0)
(0.266028 -0.0130545 0 0.0670766 0 0)
(0.280742 -0.0293254 0 0.0902923 0 0)
(0.307624 -0.0551928 0 0.116163 0 0)
(0.334833 -0.0933964 0 0.177931 0 0)
(0.383774 -0.151533 0 0.253545 0 0)
(0.434711 -0.231174 0 0.41365 0 0)
(0.48663 -0.33944 0 0.722019 0 0)
(0.512218 -0.449763 0 1.2994 0 0)
(0.503052 0.0359264 0 0.00918963 0 0)
(0.228938 0.000370781 0 0.0158464 0 0)
(0.234868 0.0083435 0 0.023092 0 0)
(0.249286 0.01979 0 0.021528 0 0)
(0.262163 0.0193865 0 0.0199841 0 0)
(0.258882 0.0153861 0 0.0218136 0 0)
(0.251709 0.0134618 0 0.0244461 0 0)
(0.252142 0.00620129 0 0.0258157 0 0)
(0.257329 -0.00331189 0 0.0333668 0 0)
(0.257617 -0.0104891 0 0.044656 0 0)
(0.261246 -0.0210701 0 0.0573156 0 0)
(0.272858 -0.034075 0 0.0788496 0 0)
(0.293528 -0.0578052 0 0.110527 0 0)
(0.312895 -0.090487 0 0.165477 0 0)
(0.344434 -0.136536 0 0.252413 0 0)
(0.371092 -0.19214 0 0.411539 0 0)
(0.398367 -0.263295 0 0.642498 0 0)
(0.426611 -0.315276 0 1.04657 0 0)
(0.447677 0.0243875 0 0.00869493 0 0)
(0.229847 -0.00571788 0 0.015165 0 0)
(0.235993 -0.00201169 0 0.0205192 0 0)
(0.236701 0.00787139 0 0.0239683 0 0)
(0.24077 0.0112716 0 0.0232312 0 0)
(0.237123 0.00689286 0 0.0229956 0 0)
(0.234136 0.00305661 0 0.0253799 0 0)
(0.236151 -0.000801224 0 0.0303447 0 0)
(0.243718 -0.00977549 0 0.0366814 0 0)
(0.248517 -0.0196513 0 0.0494951 0 0)
(0.257986 -0.0314624 0 0.0660373 0 0)
(0.267235 -0.0456558 0 0.0886938 0 0)
(0.285871 -0.0718238 0 0.121655 0 0)
(0.30235 -0.102594 0 0.181969 0 0)
(0.324732 -0.143978 0 0.268119 0 0)
(0.339257 -0.186279 0 0.39984 0 0)
(0.365934 -0.230762 0 0.597757 0 0)
(0.416818 -0.250294 0 0.932738 0 0)
(0.462714 0.0228981 0 0.00728303 0 0)
(0.230915 -0.00639405 0 0.0117428 0 0)
(0.234363 -0.00478928 0 0.0176116 0 0)
(0.233096 0.00315949 0 0.019841 0 0)
(0.237661 0.00656458 0 0.019677 0 0)
(0.235704 0.0030155 0 0.0211507 0 0)
(0.233293 -0.00150714 0 0.0244975 0 0)
(0.233239 -0.00625412 0 0.0289805 0 0)
(0.238792 -0.0136475 0 0.0356996 0 0)
(0.243545 -0.0222526 0 0.0506735 0 0)
(0.253364 -0.0357363 0 0.0688941 0 0)
(0.264677 -0.0507429 0 0.0952432 0 0)
(0.280265 -0.0707916 0 0.132146 0 0)
(0.287781 -0.0935824 0 0.191979 0 0)
(0.297979 -0.124365 0 0.273995 0 0)
(0.307389 -0.153902 0 0.403885 0 0)
(0.318779 -0.182094 0 0.581699 0 0)
(0.34769 -0.191619 0 0.863195 0 0)
(0.476237 0.0181803 0 0.0101657 0 0)
(0.240649 -0.0064864 0 0.0107424 0 0)
(0.247823 -0.0044367 0 0.0143091 0 0)
(0.242322 0.00385626 0 0.017701 0 0)
(0.238446 0.00708198 0 0.0201172 0 0)
(0.235736 0.00631713 0 0.0220486 0 0)
(0.235033 0.00346336 0 0.0252886 0 0)
(0.237224 0.000470013 0 0.0318774 0 0)
(0.240476 -0.00450004 0 0.0412404 0 0)
(0.242334 -0.0105227 0 0.0557732 0 0)
(0.245881 -0.0200386 0 0.0751473 0 0)
(0.249447 -0.0296942 0 0.10352 0 0)
(0.255563 -0.0447997 0 0.14021 0 0)
(0.260249 -0.0606703 0 0.199067 0 0)
(0.267943 -0.0786111 0 0.276881 0 0)
(0.269035 -0.0901705 0 0.386074 0 0)
(0.27114 -0.100599 0 0.52839 0 0)
(0.302729 -0.100499 0 0.763152 0 0)
(0.489633 0.0217797 0 0.00683513 0 0)
(0.224477 -0.00683717 0 0.00945004 0 0)
(0.22304 -0.00523908 0 0.0130979 0 0)
(0.218374 0.000462902 0 0.0163812 0 0)
(0.219627 0.00208213 0 0.0192304 0 0)
(0.220775 0.000315549 0 0.0219927 0 0)
(0.221559 -0.00275242 0 0.0262094 0 0)
(0.224744 -0.00612709 0 0.0332116 0 0)
(0.228974 -0.0119239 0 0.043083 0 0)
(0.231259 -0.0192248 0 0.0589041 0 0)
(0.23443 -0.029739 0 0.0812492 0 0)
(0.238097 -0.0403189 0 0.112818 0 0)
(0.244747 -0.0520575 0 0.150836 0 0)
(0.247325 -0.0620752 0 0.20546 0 0)
(0.248839 -0.0727655 0 0.275056 0 0)
(0.250185 -0.0761935 0 0.37155 0 0)
(0.255013 -0.0742183 0 0.491162 0 0)
(0.272962 -0.0613713 0 0.694926 0 0)
(0.453204 0.0206361 0 0.010406 0 0)
(0.223519 -0.00953203 0 0.0132507 0 0)
(0.224794 -0.00739023 0 0.0150547 0 0)
(0.216789 -0.000732893 0 0.0176584 0 0)
(0.215547 0.000398784 0 0.0211768 0 0)
(0.216188 -0.00269624 0 0.0256103 0 0)
(0.218049 -0.00615624 0 0.0309945 0 0)
(0.22028 -0.00931852 0 0.0385852 0 0)
(0.222834 -0.0135306 0 0.0496751 0 0)
(0.224757 -0.018545 0 0.0660644 0 0)
(0.228016 -0.0262429 0 0.0873332 0 0)
(0.230108 -0.0334271 0 0.117171 0 0)
(0.232469 -0.0398278 0 0.151919 0 0)
(0.233274 -0.0413539 0 0.199736 0 0)
(0.234521 -0.0392417 0 0.257327 0 0)
(0.235816 -0.0282259 0 0.330198 0 0)
(0.238986 -0.0143161 0 0.418915 0 0)
(0.257119 0.0103347 0 0.59682 0 0)
(0.50245 0.0278837 0 0.0130714 0 0)
(0.231439 -0.00692053 0 0.0119726 0 0)
(0.223403 -0.00484958 0 0.0133631 0 0)
(0.21312 0.000522639 0 0.0165553 0 0)
(0.214281 0.0012507 0 0.0208168 0 0)
(0.219765 -0.00146212 0 0.0252227 0 0)
(0.224626 -0.00421319 0 0.0312203 0 0)
(0.227812 -0.00588092 0 0.0395958 0 0)
(0.228464 -0.00800444 0 0.0514732 0 0)
(0.226889 -0.00984854 0 0.0672196 0 0)
(0.225485 -0.0129727 0 0.0868831 0 0)
(0.225719 -0.0142416 0 0.113866 0 0)
(0.229182 -0.0147277 0 0.146255 0 0)
(0.231426 -0.0101568 0 0.186907 0 0)
(0.23228 -0.0038676 0 0.233525 0 0)
(0.23458 0.0100712 0 0.291584 0 0)
(0.238579 0.0272458 0 0.365148 0 0)
(0.259025 0.0545065 0 0.505052 0 0)
(0.443657 0.0251966 0 0.0111437 0 0)
(0.23357 -0.0104517 0 0.0121293 0 0)
(0.23278 -0.0103605 0 0.0137951 0 0)
(0.219336 -0.00371794 0 0.0170079 0 0)
(0.213756 -0.00142843 0 0.0215099 0 0)
(0.21319 -0.00347057 0 0.0262825 0 0)
(0.216432 -0.0063641 0 0.0324636 0 0)
(0.22008 -0.00784429 0 0.0402107 0 0)
(0.222684 -0.00888787 0 0.0506765 0 0)
(0.223135 -0.00859998 0 0.0647336 0 0)
(0.223238 -0.0088624 0 0.0829796 0 0)
(0.223352 -0.0071874 0 0.106627 0 0)
(0.224379 -0.00522245 0 0.134494 0 0)
(0.226593 0.001063 0 0.167605 0 0)
(0.229805 0.0100758 0 0.2037 0 0)
(0.235684 0.0264815 0 0.247574 0 0)
(0.244088 0.0466401 0 0.302275 0 0)
(0.264152 0.0825629 0 0.436069 0 0)
(0.414765 0.0134081 0 0.0147242 0 0)
(0.235658 -0.00566139 0 0.015591 0 0)
(0.241296 -0.00843506 0 0.0126969 0 0)
(0.227811 -0.00545204 0 0.013333 0 0)
(0.218955 -0.00420096 0 0.0169937 0 0)
(0.213239 -0.00573523 0 0.0219212 0 0)
(0.212322 -0.00868945 0 0.0283949 0 0)
(0.214291 -0.0107557 0 0.0364879 0 0)
(0.218942 -0.0123384 0 0.0467424 0 0)
(0.222489 -0.012051 0 0.0596408 0 0)
(0.224055 -0.0107801 0 0.0748769 0 0)
(0.22341 -0.00657768 0 0.0931734 0 0)
(0.222422 -0.000965569 0 0.113794 0 0)
(0.223335 0.00812573 0 0.137286 0 0)
(0.226756 0.0187608 0 0.161148 0 0)
(0.235063 0.0338032 0 0.187186 0 0)
(0.246573 0.0519238 0 0.218845 0 0)
(0.264967 0.080438 0 0.283667 0 0)
(0.477436 0.00881325 0 0.012412 0 0)
(0.223936 -0.00385947 0 0.0126642 0 0)
(0.219995 -0.00271802 0 0.0129515 0 0)
(0.214634 0.00172451 0 0.0160458 0 0)
(0.213798 0.00286672 0 0.0208558 0 0)
(0.212653 0.00114941 0 0.0259266 0 0)
(0.211729 -0.000482474 0 0.0312013 0 0)
(0.212278 -0.00018182 0 0.0370635 0 0)
(0.214627 0.00186821 0 0.0443578 0 0)
(0.217891 0.00495099 0 0.0529361 0 0)
(0.221318 0.00884464 0 0.0630848 0 0)
(0.224042 0.0142616 0 0.0749826 0 0)
(0.227122 0.021238 0 0.0885968 0 0)
(0.231405 0.0301481 0 0.10429 0 0)
(0.23861 0.0408732 0 0.120311 0 0)
(0.249392 0.0540323 0 0.137449 0 0)
(0.262309 0.068727 0 0.154605 0 0)
(0.278452 0.0851043 0 0.174976 0 0)
(0.480676 0.0219501 0 0.0109646 0 0)
(0.232638 -0.00411761 0 0.0130066 0 0)
(0.222891 -0.00276226 0 0.0141079 0 0)
(0.21622 0.00257575 0 0.0150951 0 0)
(0.218106 0.00494119 0 0.018077 0 0)
(0.220576 0.00494842 0 0.0224317 0 0)
(0.221725 0.0055884 0 0.0273089 0 0)
(0.222573 0.00783268 0 0.0317158 0 0)
(0.224016 0.0116988 0 0.0369191 0 0)
(0.226649 0.0160649 0 0.0431354 0 0)
(0.23169 0.0210591 0 0.0507 0 0)
(0.239223 0.027233 0 0.059326 0 0)
(0.249113 0.0352106 0 0.0686739 0 0)
(0.260781 0.0449908 0 0.0789582 0 0)
(0.27357 0.0563362 0 0.0892743 0 0)
(0.288237 0.0690855 0 0.0999178 0 0)
(0.304398 0.0820193 0 0.108995 0 0)
(0.323242 0.0954901 0 0.118595 0 0)
(0.507488 0.0251977 0 0.013955 0 0)
(0.230578 -0.00147671 0 0.0121288 0 0)
(0.218766 -0.00388083 0 0.0119306 0 0)
(0.218897 0.00212093 0 0.0128716 0 0)
(0.226274 0.00635547 0 0.015143 0 0)
(0.231845 0.0073843 0 0.0181081 0 0)
(0.234594 0.00827802 0 0.0217556 0 0)
(0.236439 0.0108144 0 0.025453 0 0)
(0.237914 0.0147879 0 0.0292884 0 0)
(0.240674 0.0190722 0 0.0328475 0 0)
(0.245986 0.0232631 0 0.03652 0 0)
(0.254681 0.0279635 0 0.0403047 0 0)
(0.265835 0.0334699 0 0.0439938 0 0)
(0.277902 0.0401648 0 0.0483389 0 0)
(0.289152 0.047341 0 0.0528617 0 0)
(0.302088 0.0557033 0 0.0578621 0 0)
(0.315866 0.0643318 0 0.0626117 0 0)
(0.332622 0.0730395 0 0.0673302 0 0)
(0.467588 0.0199766 0 0.0136295 0 0)
(0.226602 -0.00860436 0 0.01159 0 0)
(0.229995 -0.009124 0 0.00993331 0 0)
(0.222965 -0.0030144 0 0.0094164 0 0)
(0.220682 0.000858203 0 0.00980406 0 0)
(0.221013 0.00197237 0 0.0109733 0 0)
(0.225735 0.00270195 0 0.0130972 0 0)
(0.234627 0.0048024 0 0.0156999 0 0)
(0.245001 0.00868558 0 0.0186364 0 0)
(0.254052 0.013408 0 0.0213952 0 0)
(0.26071 0.0181333 0 0.0243137 0 0)
(0.266825 0.0225757 0 0.0274719 0 0)
(0.274585 0.0272003 0 0.0308051 0 0)
(0.284441 0.0322314 0 0.034477 0 0)
(0.29623 0.0380827 0 0.0382489 0 0)
(0.309643 0.0445756 0 0.0421597 0 0)
(0.323715 0.0512055 0 0.0455635 0 0)
(0.337449 0.0574267 0 0.0485367 0 0)
(0.429264 0.00628835 0 0.0096226 0 0)
(0.228492 -0.00227767 0 0.00683154 0 0)
(0.231967 -0.00480902 0 0.00400147 0 0)
(0.223614 -0.00517726 0 0.00322296 0 0)
(0.221434 -0.00385979 0 0.00358855 0 0)
(0.223718 -0.00190831 0 0.00447735 0 0)
(0.230902 0.000720582 0 0.00607866 0 0)
(0.241377 0.00377836 0 0.00804073 0 0)
(0.253054 0.00723914 0 0.0100726 0 0)
(0.263662 0.010647 0 0.0119634 0 0)
(0.273715 0.0145761 0 0.0138677 0 0)
(0.284692 0.0190776 0 0.0159077 0 0)
(0.298735 0.0246536 0 0.0179806 0 0)
(0.315489 0.0306383 0 0.0201925 0 0)
(0.334432 0.0368258 0 0.0223117 0 0)
(0.35381 0.0426881 0 0.024456 0 0)
(0.373258 0.0481594 0 0.02619 0 0)
(0.391952 0.0532143 0 0.0277728 0 0)
(0.47677 -0.00272812 0 0.00949859 0 0)
(0.215458 -0.00243398 0 0.00521915 0 0)
(0.214345 -0.00462562 0 0.00263834 0 0)
(0.215855 -0.00661735 0 0.00213869 0 0)
(0.225018 -0.00596566 0 0.00201584 0 0)
(0.235013 -0.00402172 0 0.00205064 0 0)
(0.244419 -0.00134689 0 0.00254572 0 0)
(0.253356 0.0013893 0 0.00339381 0 0)
(0.263457 0.00432812 0 0.00425912 0 0)
(0.275193 0.00728799 0 0.00493985 0 0)
(0.28922 0.010827 0 0.00573247 0 0)
(0.304798 0.014866 0 0.00676844 0 0)
(0.322527 0.0196598 0 0.00808526 0 0)
(0.340825 0.0247069 0 0.00958889 0 0)
(0.360001 0.0299982 0 0.0111362 0 0)
(0.378946 0.0352119 0 0.0127231 0 0)
(0.398738 0.04032 0 0.0141319 0 0)
(0.418166 0.045187 0 0.0154622 0 0)
(0.525246 0.00184815 0 0.011138 0 0)
(0.22615 -0.00564512 0 0.00588482 0 0)
(0.223061 -0.00920296 0 0.00298861 0 0)
(0.242787 -0.0128095 0 0.00228815 0 0)
(0.269639 -0.0124509 0 0.00201679 0 0)
(0.289283 -0.0101025 0 0.00189902 0 0)
(0.301227 -0.00712169 0 0.001944 0 0)
(0.31019 -0.00445936 0 0.00203639 0 0)
(0.321605 -0.00177272 0 0.00219906 0 0)
(0.337776 0.00114877 0 0.00245225 0 0)
(0.358291 0.0048292 0 0.002864 0 0)
(0.380063 0.00912227 0 0.00348893 0 0)
(0.402757 0.0139627 0 0.00423985 0 0)
(0.424416 0.0185846 0 0.00508814 0 0)
(0.446519 0.0230086 0 0.00587696 0 0)
(0.468942 0.0269968 0 0.00657766 0 0)
(0.493508 0.0306069 0 0.00708184 0 0)
(0.518752 0.0340675 0 0.00751195 0 0)
(0.484621 -0.0029259 0 0.0073135 0 0)
(0.227286 -0.00736656 0 0.00621809 0 0)
(0.224584 -0.00971878 0 0.00574731 0 0)
(0.240724 -0.0146504 0 0.00469375 0 0)
(0.26556 -0.0155624 0 0.0033329 0 0)
(0.286164 -0.0142507 0 0.00233279 0 0)
(0.301487 -0.0123707 0 0.00202171 0 0)
(0.314328 -0.0104607 0 0.00219099 0 0)
(0.328892 -0.00807144 0 0.00238586 0 0)
(0.346799 -0.00557467 0 0.00243886 0 0)
(0.368547 -0.00281159 0 0.0023718 0 0)
(0.393183 3.43053e-05 0 0.00236854 0 0)
(0.420203 0.00304777 0 0.00251425 0 0)
(0.448006 0.00619337 0 0.0028345 0 0)
(0.476313 0.00947736 0 0.00329442 0 0)
(0.503815 0.0128194 0 0.00374803 0 0)
(0.531204 0.0160128 0 0.00414222 0 0)
(0.557206 0.0190807 0 0.00444208 0 0)
(0.483965 -0.00632319 0 0.00554639 0 0)
(0.222188 -0.00345229 0 0.00664299 0 0)
(0.226923 -0.0115979 0 0.00818018 0 0)
(0.255477 -0.0218239 0 0.00763921 0 0)
(0.288315 -0.0242075 0 0.00575868 0 0)
(0.31187 -0.0227788 0 0.00403618 0 0)
(0.329298 -0.0208186 0 0.00286398 0 0)
(0.3464 -0.0190442 0 0.0022005 0 0)
(0.367047 -0.0170488 0 0.00185778 0 0)
(0.391077 -0.0148086 0 0.00169361 0 0)
(0.417659 -0.0122846 0 0.0015881 0 0)
(0.445043 -0.00966661 0 0.00141036 0 0)
(0.473301 -0.00715716 0 0.00128886 0 0)
(0.50142 -0.00485885 0 0.00121991 0 0)
(0.530051 -0.00264608 0 0.00134518 0 0)
(0.558219 -0.000223204 0 0.00158351 0 0)
(0.586929 0.00249197 0 0.00189454 0 0)
(0.614824 0.00571546 0 0.00216833 0 0)
(0.422495 -0.0208775 0 0.00712384 0 0)
(0.222892 -0.00440694 0 0.0122484 0 0)
(0.237758 -0.0147779 0 0.0148073 0 0)
(0.276398 -0.0282458 0 0.0125192 0 0)
(0.316762 -0.032518 0 0.00950308 0 0)
(0.34384 -0.0327197 0 0.00811753 0 0)
(0.364228 -0.0314599 0 0.00765533 0 0)
(0.385193 -0.0290289 0 0.00731225 0 0)
(0.409445 -0.0261011 0 0.00656437 0 0)
(0.436285 -0.023456 0 0.00549984 0 0)
(0.463571 -0.0212435 0 0.00440897 0 0)
(0.490192 -0.019343 0 0.00353244 0 0)
(0.515794 -0.0176405 0 0.00308237 0 0)
(0.540945 -0.0160097 0 0.00305565 0 0)
(0.565688 -0.0143575 0 0.00328992 0 0)
(0.590376 -0.0125674 0 0.00350524 0 0)
(0.614613 -0.0104081 0 0.00361699 0 0)
(0.638286 -0.00791501 0 0.00347148 0 0)
(0.492552 -0.0380052 0 0.00747796 0 0)
(0.224683 -0.0152259 0 0.0193901 0 0)
(0.254086 -0.0333413 0 0.024325 0 0)
(0.324205 -0.0499087 0 0.0206628 0 0)
(0.377031 -0.0547662 0 0.0176321 0 0)
(0.39757 -0.0536417 0 0.0158784 0 0)
(0.402867 -0.0491379 0 0.014447 0 0)
(0.403385 -0.0421166 0 0.0126715 0 0)
(0.405071 -0.0352807 0 0.0105782 0 0)
(0.406732 -0.029592 0 0.00848737 0 0)
(0.409059 -0.0256348 0 0.00675452 0 0)
(0.409509 -0.0225523 0 0.00557224 0 0)
(0.410057 -0.0200387 0 0.00497494 0 0)
(0.409428 -0.0176081 0 0.00483745 0 0)
(0.409946 -0.0154285 0 0.00487404 0 0)
(0.410013 -0.0132925 0 0.00494698 0 0)
(0.411567 -0.0111836 0 0.00483783 0 0)
(0.412482 -0.00896759 0 0.00457777 0 0)
(0.44946 -0.0423501 0 0.0119242 0 0)
(0.229389 -0.0166764 0 0.0331556 0 0)
(0.256966 -0.0303015 0 0.0325424 0 0)
(0.282141 -0.0356587 0 0.024077 0 0)
(0.266187 -0.0271977 0 0.0206365 0 0)
(0.236331 -0.0134996 0 0.0191139 0 0)
(0.21825 -0.000428671 0 0.0172287 0 0)
(0.215685 0.00969025 0 0.0144844 0 0)
(0.223166 0.0152965 0 0.011455 0 0)
(0.237859 0.0184134 0 0.00884844 0 0)
(0.254577 0.0194955 0 0.00673727 0 0)
(0.273975 0.0204932 0 0.00550732 0 0)
(0.293541 0.0211984 0 0.00484325 0 0)
(0.313748 0.0220503 0 0.00462306 0 0)
(0.333293 0.0226812 0 0.00453138 0 0)
(0.352056 0.0232173 0 0.00447881 0 0)
(0.367784 0.0237516 0 0.00442247 0 0)
(0.382147 0.0245229 0 0.00435876 0 0)
(0.461129 -0.0852285 0 0.0268571 0 0)
(0.222361 0.0114529 0 0.0507385 0 0)
(0.274534 0.0393343 0 0.0368887 0 0)
(0.344337 0.0545844 0 0.0227958 0 0)
(0.508126 0.0672121 0 0.0147869 0 0)
(0.754736 0.0669848 0 0.00977186 0 0)
(1.02321 0.0566011 0 0.00628548 0 0)
(1.27164 0.0436534 0 0.00385789 0 0)
(1.47807 0.0335109 0 0.00232526 0 0)
(1.6516 0.0266976 0 0.00147707 0 0)
(1.78609 0.0229623 0 0.000982461 0 0)
(1.89986 0.0214848 0 0.00081915 0 0)
(1.99189 0.0205874 0 0.000719079 0 0)
(2.0641 0.0215819 0 0.000789105 0 0)
(2.13643 0.0219534 0 0.000826807 0 0)
(2.17934 0.0231644 0 0.000893349 0 0)
(2.23923 0.0272735 0 0.00106459 0 0)
(2.26438 0.0289409 0 0.00110736 0 0)
(0.250351 -0.0158458 0 0.00805737 0 0)
(0.843653 0.0461498 0 0.0047484 0 0)
(1.51378 0.0269564 0 0.00106015 0 0)
(2.0463 0.00744691 0 0.000130106 0 0)
(2.5257 -0.00449459 0 5.57502e-05 0 0)
(2.86538 -0.011177 0 8.44671e-05 0 0)
(3.06782 -0.0114296 0 6.95363e-05 0 0)
(3.18319 -0.00789212 0 5.16039e-05 0 0)
(3.25532 -0.00346 0 5.10962e-05 0 0)
(3.30891 0.00035286 0 6.0925e-05 0 0)
(3.35209 0.0031996 0 7.50736e-05 0 0)
(3.39107 0.00511022 0 9.40436e-05 0 0)
(3.42654 0.00639906 0 0.000111353 0 0)
(3.45761 0.00757178 0 0.000140843 0 0)
(3.49965 0.00784335 0 0.000137757 0 0)
(3.51086 0.0104959 0 0.000215451 0 0)
(3.59374 0.0118852 0 0.000179285 0 0)
(3.55731 0.0149765 0 0.000351705 0 0)
(0.00125705 -0.00266016 0 0.00563861 0 0)
(0.0113475 -0.00807923 0 0.00576312 0 0)
(0.0312926 -0.0132925 0 0.00565159 0 0)
(0.0616731 -0.0185011 0 0.00555368 0 0)
(0.101927 -0.0234899 0 0.0054167 0 0)
(0.152057 -0.0282262 0 0.00524319 0 0)
(0.211373 -0.0326126 2.74322e-20 0.00503619 -4.12402e-21 1.98834e-36)
(0.279359 -0.0365611 -3.11242e-20 0.00479066 3.95744e-21 1.95847e-36)
(0.355194 -0.0400076 0 0.00451386 0 0)
(0.437979 -0.0429032 -3.79757e-20 0.00421262 3.58255e-21 1.89959e-36)
(0.526469 -0.0451874 0 0.00389125 0 0)
(0.619138 -0.0467618 0 0.00354763 0 0)
(0.714963 -0.0475997 0 0.00318824 0 0)
(0.812299 -0.0477017 4.91081e-20 0.00282389 -2.70723e-21 1.78525e-36)
(0.909571 -0.0470341 0 0.00245806 0 0)
(1.00477 -0.0456171 0 0.00209959 0 0)
(1.09648 -0.0434169 -5.48657e-20 0.0017499 1.99516e-21 1.70245e-36)
(1.18309 -0.0406053 0 0.00142561 0 0)
(1.26288 -0.0371063 0 0.00112254 0 0)
(1.33469 -0.0331524 0 0.000855239 0 0)
(1.3972 -0.028744 5.88618e-20 0.000621752 -1.08669e-21 1.59596e-36)
(1.44927 -0.0240827 0 0.000428803 0 0)
(1.49011 -0.0193016 5.93465e-20 0.000276184 -6.90689e-22 1.5444e-36)
(1.51984 -0.0144005 0 0.00015999 0 0)
(1.5381 -0.00962764 0 8.1469e-05 0 0)
(1.54521 -0.00512258 5.8453e-20 3.62084e-05 -2.02835e-22 1.46915e-36)
(1.54146 -0.000964209 0 1.84379e-05 0 0)
(1.52754 0.00283197 -5.69679e-20 2.25313e-05 -3.7023e-23 1.42038e-36)
(1.50454 0.00614585 0 4.27755e-05 0 0)
(1.4734 0.00893152 5.49503e-20 7.31084e-05 2.07336e-22 1.37274e-36)
(1.43535 0.0111859 0 0.000108378 0 0)
(1.39149 0.0129058 0 0.000143979 0 0)
(1.34297 0.0141121 0 0.000176221 0 0)
(1.29106 0.0148395 0 0.000202504 0 0)
(1.23688 0.0151279 0 0.000221203 0 0)
(1.18142 0.0150312 -4.72217e-20 0.000231689 -3.60997e-22 1.23653e-36)
(1.1256 0.0146138 0 0.000234167 0 0)
(1.07028 0.0139253 8.90292e-20 0.000229057 6.48784e-22 4.77345e-36)
(1.01617 0.0130141 0 0.000217364 0 0)
(0.963806 0.0119369 -8.38172e-20 0.000200598 -5.25586e-22 4.60522e-36)
(0.913653 0.0107522 0 0.000180439 0 0)
(0.866082 0.00950291 0 0.000158356 0 0)
(0.821357 0.00821706 7.66278e-20 0.000135617 2.86067e-22 4.36115e-36)
(0.779626 0.00692482 0 0.000113437 0 0)
(0.740977 0.00565994 7.23725e-20 9.28765e-05 1.1435e-22 4.2039e-36)
(0.705455 0.0044454 -7.04176e-20 7.46747e-05 -2.93767e-23 4.1269e-36)
(0.673036 0.00328968 0 5.92968e-05 0 0)
(0.643638 0.00219938 -6.687e-20 4.70194e-05 1.30441e-22 3.97613e-36)
(0.617155 0.00118638 -6.52742e-20 3.78971e-05 2.05158e-22 3.90234e-36)
(0.593478 0.000258824 0 3.17714e-05 0 0)
(0.57248 -0.000585834 0 2.84009e-05 0 0)
(0.553999 -0.00135367 0 2.75118e-05 0 0)
(0.537868 -0.00204516 0 2.87138e-05 0 0)
(0.52394 -0.00265843 0 3.15042e-05 0 0)
(0.512075 -0.00319775 5.79828e-20 3.54316e-05 -5.41053e-22 3.48158e-36)
(0.502123 -0.00367266 0 4.01738e-05 0 0)
(0.493928 -0.00408946 -5.63105e-20 4.54179e-05 6.07308e-22 3.34951e-36)
(0.487348 -0.00444901 0 5.07778e-05 0 0)
(0.482267 -0.00475329 0 5.59113e-05 0 0)
(0.478569 -0.00500922 5.43576e-20 6.06481e-05 -6.69793e-22 3.15885e-36)
(0.476136 -0.00522433 0 6.49153e-05 0 0)
(0.47485 -0.00540166 -5.33617e-20 6.85928e-05 6.88987e-22 3.0366e-36)
(0.474615 -0.00554171 0 7.1531e-05 0 0)
(0.47535 -0.00564746 0 7.36805e-05 0 0)
(0.47697 -0.00572463 0 7.5113e-05 0 0)
(0.479385 -0.00577765 5.19131e-20 7.59062e-05 -6.8851e-22 2.80343e-36)
(0.482516 -0.00580808 0 7.60769e-05 0 0)
(0.486301 -0.00581661 0 7.56316e-05 0 0)
(0.490687 -0.005806 5.11645e-20 7.46482e-05 -6.63788e-22 2.63816e-36)
(0.495608 -0.0057792 0 7.32292e-05 0 0)
(0.500996 -0.00573702 5.07705e-20 7.1427e-05 -6.39915e-22 2.5324e-36)
(0.506793 -0.00568052 0 6.92855e-05 0 0)
(0.51296 -0.00560334 0 6.66803e-05 0 0)
(0.519469 -0.00549807 0 6.35101e-05 0 0)
(0.526279 -0.00537638 -5.01315e-20 6.00838e-05 5.77635e-22 2.33112e-36)
(0.533342 -0.00524903 0 5.66551e-05 0 0)
(0.540618 -0.00512009 0 5.33145e-05 0 0)
(0.548082 -0.00499058 -4.97192e-20 5.00882e-05 5.245e-22 2.18881e-36)
(0.555703 -0.0048614 -4.95859e-20 4.70028e-05 5.07066e-22 2.14297e-36)
(0.563451 -0.00473321 0 4.40747e-05 0 0)
(0.571302 -0.00460669 -4.93186e-20 4.13068e-05 4.73155e-22 2.05361e-36)
(0.579243 -0.00448052 0 3.86654e-05 0 0)
(0.587265 -0.00435599 -9.80876e-20 3.61661e-05 8.82395e-22 7.86911e-36)
(0.595344 -0.00423308 0 3.38131e-05 0 0)
(0.603457 -0.00411636 -9.75156e-20 3.16811e-05 8.22007e-22 7.5356e-36)
(0.611597 -0.00401054 0 2.97979e-05 0 0)
(0.619767 -0.00391011 9.69163e-20 2.80655e-05 -7.6752e-22 7.21358e-36)
(0.627965 -0.00381052 0 2.64197e-05 0 0)
(0.636169 -0.00371115 0 2.48575e-05 0 0)
(0.644358 -0.00361423 0 2.34058e-05 0 0)
(0.652518 -0.00352153 -9.56103e-20 2.20732e-05 6.70813e-22 6.60274e-36)
(0.660656 -0.00343293 0 2.08437e-05 0 0)
(0.668779 -0.00334654 9.49002e-20 1.96882e-05 -6.27372e-22 6.3133e-36)
(0.676882 -0.00326176 0 1.86039e-05 0 0)
(0.684947 -0.00317946 -9.41498e-20 1.75985e-05 5.87255e-22 6.0341e-36)
(0.692968 -0.00310024 -9.37597e-20 1.66686e-05 5.68319e-22 5.89824e-36)
(0.700949 -0.0030235 -9.33599e-20 1.5799e-05 5.50188e-22 5.76484e-36)
(0.708901 -0.0029481 0 1.4975e-05 0 0)
(0.716822 -0.00287355 0 1.41933e-05 0 0)
(0.724701 -0.00280069 0 1.3463e-05 0 0)
(0.732528 -0.00273103 0 1.27932e-05 0 0)
(0.740304 -0.00266522 0 1.21811e-05 0 0)
(0.74804 -0.00260211 0 1.16108e-05 0 0)
(0.755745 -0.00253991 0 1.10675e-05 0 0)
(0.763415 -0.00247803 0 1.05493e-05 0 0)
(0.77104 -0.00241763 8.93478e-20 1.00651e-05 -4.17623e-22 4.66853e-36)
(0.778617 -0.00236029 8.88601e-20 9.62172e-06 -4.05667e-22 4.55767e-36)
(0.78615 -0.0023063 0 9.21528e-06 0 0)
(0.793647 -0.00225445 0 8.835e-06 0 0)
(0.801114 -0.00220318 0 8.47159e-06 0 0)
(0.808549 -0.00215205 8.68364e-20 8.12434e-06 -3.62021e-22 4.13462e-36)
(0.815945 -0.00210199 0 7.79799e-06 0 0)
(0.823301 -0.00205407 0 7.49555e-06 0 0)
(0.83062 -0.00200849 0 7.21504e-06 0 0)
(0.837908 -0.00196451 0 6.95181e-06 0 0)
(0.845166 -0.0019213 -8.41532e-20 6.70216e-06 3.15873e-22 3.64929e-36)
(0.852395 -0.00187851 0 6.4649e-06 0 0)
(0.859592 -0.00183644 0 6.24058e-06 0 0)
(0.866757 -0.00179547 8.24702e-20 6.02895e-06 -2.91712e-22 3.37986e-36)
(0.873891 -0.00175572 -8.18979e-20 5.82905e-06 2.84255e-22 3.2935e-36)
(0.880998 -0.0017171 0 5.64009e-06 0 0)
(0.888076 -0.00167948 -8.07374e-20 5.46186e-06 2.70004e-22 3.12581e-36)
(0.895127 -0.00164274 0 5.29415e-06 0 0)
(0.902151 -0.00160665 7.95569e-20 5.13562e-06 -2.56318e-22 2.96462e-36)
(0.909149 -0.00157098 0 4.98461e-06 0 0)
(0.916121 -0.00153565 0 4.84011e-06 0 0)
(0.923068 -0.00150085 0 4.70232e-06 0 0)
(0.929989 -0.00146694 0 4.57198e-06 0 0)
(0.936882 -0.00143409 0 4.44924e-06 0 0)
(0.943751 -0.00140209 -1.51797e-19 4.33333e-06 4.40048e-22 1.00725e-35)
(0.950596 -0.00137043 -1.50546e-19 4.22267e-06 4.28874e-22 9.79535e-36)
(0.957418 -0.00133866 0 4.11605e-06 0 0)
(0.964218 -0.00130675 0 4.01318e-06 0 0)
(0.970992 -0.00127507 0 3.91474e-06 0 0)
(0.97774 -0.00124415 1.45455e-19 3.82148e-06 -3.87333e-22 8.7423e-36)
(0.98446 -0.00121412 0 3.73317e-06 0 0)
(0.991156 -0.00118468 0 3.64898e-06 0 0)
(0.997827 -0.00115522 0 3.56778e-06 0 0)
(1.00447 -0.0011254 1.40235e-19 3.48928e-06 -3.49502e-22 7.77358e-36)
(1.01109 -0.00109547 -1.38909e-19 3.41407e-06 3.40412e-22 7.54395e-36)
(1.01769 -0.00106594 0 3.34251e-06 0 0)
(1.02425 -0.00103706 0 3.27416e-06 0 0)
(1.03078 -0.00100865 -1.34884e-19 3.2085e-06 3.14914e-22 6.88386e-36)
(1.03729 -0.000980442 -1.33527e-19 3.14547e-06 3.0663e-22 6.67318e-36)
(1.04377 -0.00095224 0 3.08509e-06 0 0)
(1.05021 -0.000923969 0 3.02725e-06 0 0)
(1.05663 -0.000895716 1.29408e-19 2.97191e-06 -2.82622e-22 6.06815e-36)
(1.06302 -0.000867697 -1.28019e-19 2.91882e-06 2.75036e-22 5.87523e-36)
(1.06937 -0.000840059 0 2.86761e-06 0 0)
(1.07568 -0.000812766 0 2.81794e-06 0 0)
(1.08197 -0.000785557 -1.23805e-19 2.76965e-06 2.53359e-22 5.32176e-36)
(1.08822 -0.0007583 0 2.72305e-06 0 0)
(1.09444 -0.000731156 0 2.67849e-06 0 0)
(1.10062 -0.0007043 -1.19522e-19 2.63588e-06 2.32423e-22 4.80483e-36)
(1.10676 -0.000677609 0 2.59474e-06 0 0)
(1.11287 -0.000651045 -1.16627e-19 2.55469e-06 2.19127e-22 4.47965e-36)
(1.11894 -0.000624764 0 2.51558e-06 0 0)
(1.12497 -0.000598658 0 2.47667e-06 0 0)
(1.13096 -0.000572695 0 2.4376e-06 0 0)
(1.13692 -0.000547019 1.1074e-19 2.39823e-06 -1.93898e-22 3.87376e-36)
(1.14284 -0.00052143 0 2.35771e-06 0 0)
(1.14872 -0.000495681 0 2.31693e-06 0 0)
(1.15457 -0.00047127 0 2.27184e-06 0 0)
(1.16037 -0.000443991 0 2.22969e-06 0 0)
(1.16618 -0.000424362 0 2.16865e-06 0 0)
(1.17187 -0.000388176 0 2.13537e-06 0 0)
(1.17776 -0.000390686 1.00128e-19 2.02184e-06 -1.51944e-22 2.94677e-36)
(1.18314 -0.000313471 9.85703e-20 2.04817e-06 -1.43086e-22 2.82737e-36)
(1.18958 -0.000396452 0 1.78445e-06 0 0)
(1.19388 -0.000186954 0 2.01286e-06 0 0)
(1.20239 -0.000476195 0 1.4555e-06 0 0)
(1.2033 3.50672e-07 -9.22154e-20 1.99811e-06 1.03568e-22 2.38056e-36)
(1.21737 -0.000596708 0 1.16116e-06 0 0)