/*--------------------------------*- C++ -*----------------------------------*\
| =========                 |                                                 |
| \\      /  F ield         | OpenFOAM: The Open Source CFD Toolbox           |
|  \\    /   O peration     | Version:  2.1.x                                 |
|   \\  /    A nd           | Web:      www.OpenFOAM.org                      |
|    \\/     M anipulation  |                                                 |
\*---------------------------------------------------------------------------*/
FoamFile
{
    version     2.0;
    format      ascii;
    class       surfaceScalarField;
    location    "0.5";
    object      phi;
}
// * * * * * * * * * * * * * * * * * * * * * * * * * * * * * * * * * * * * * //

dimensions      [0 3 -1 0 0 0 0];

internalField   nonuniform List<scalar> 
760
(
0.000498519
0.000498981
0.000232818
0.000263201
0.00012221
0.000108108
6.20087e-05
5.77018e-05
2.90261e-05
3.04826e-05
1.2543e-05
1.39831e-05
4.69154e-06
5.3515e-06
9.04159e-07
1.28737e-06
-9.91593e-07
-6.04257e-07
-1.94248e-06
-1.54912e-06
-2.36463e-06
-2.07784e-06
-2.43022e-06
-2.43439e-06
-2.21727e-06
-2.71292e-06
-1.77013e-06
-2.94712e-06
-1.1328e-06
-3.13733e-06
-3.70982e-07
-3.26185e-06
4.07124e-07
-3.27814e-06
1.01718e-06
-3.11008e-06
1.11814e-06
-2.60095e-06
-1.38184e-06
0.000262532
0.000233949
0.000260675
0.000262558
0.000190768
0.000175515
0.000130041
0.000115929
8.34115e-05
7.46123e-05
5.1303e-05
4.35916e-05
3.05222e-05
2.36323e-05
1.73431e-05
1.19665e-05
9.03404e-06
5.2048e-06
3.83416e-06
1.15075e-06
6.82352e-07
-1.42605e-06
-1.05379e-06
-3.19827e-06
-1.75381e-06
-4.51289e-06
-1.67357e-06
-5.52733e-06
-1.02754e-06
-6.28332e-06
-4.46258e-08
-6.74473e-06
9.89248e-07
-6.81202e-06
1.69419e-06
-6.31504e-06
1.56688e-06
-4.97366e-06
-2.31495e-06
0.000107579
0.000123869
0.000173583
0.000194054
0.000171417
0.000175181
0.000144155
0.00014069
0.000111854
0.000104414
8.15989e-05
7.13464e-05
5.67893e-05
4.59418e-05
3.80505e-05
2.82053e-05
2.45591e-05
1.61962e-05
1.51429e-05
8.06698e-06
8.77119e-06
2.44565e-06
4.6668e-06
-1.5939e-06
2.26823e-06
-4.61435e-06
1.15117e-06
-6.91028e-06
9.55139e-07
-8.58726e-06
1.32606e-06
-9.61561e-06
1.87594e-06
-9.86185e-06
2.16178e-06
-9.10088e-06
1.69555e-06
-7.00744e-06
-3.11942e-06
5.74066e-05
6.39626e-05
0.000114399
0.000134561
0.00013722
0.00014986
0.000134806
0.000140605
0.000118863
0.000117857
9.71032e-05
9.0606e-05
7.50281e-05
6.55169e-05
5.5636e-05
4.50974e-05
3.99291e-05
2.94031e-05
2.78487e-05
1.76475e-05
1.89213e-05
8.87306e-06
1.2586e-05
2.24139e-06
8.32094e-06
-2.84936e-06
5.66577e-06
-6.75514e-06
4.2006e-06
-9.62209e-06
3.51593e-06
-1.14309e-05
3.18963e-06
-1.20355e-05
2.78134e-06
-1.11925e-05
1.85213e-06
-8.57823e-06
-3.76731e-06
3.03622e-05
3.11005e-05
7.36274e-05
8.87961e-05
0.000101702
0.000119286
0.000112773
0.000127034
0.000110177
0.000117952
9.86138e-05
9.96694e-05
8.28716e-05
7.87592e-05
6.64891e-05
5.89798e-05
5.1492e-05
4.19002e-05
3.87809e-05
2.78586e-05
2.85708e-05
1.65832e-05
2.07166e-05
7.5956e-06
1.49151e-05
4.52119e-07
1.0806e-05
-5.1461e-06
8.00967e-06
-9.32579e-06
6.1354e-06
-1.20566e-05
4.7831e-06
-1.31832e-05
3.55254e-06
-1.24619e-05
2.06686e-06
-9.59253e-06
-4.20047e-06
1.39566e-05
1.46439e-05
4.30235e-05
5.72292e-05
6.9428e-05
9.03812e-05
8.65666e-05
0.000107395
9.29666e-05
0.000109052
9.02797e-05
9.98563e-05
8.1617e-05
8.49219e-05
7.0001e-05
6.80957e-05
5.76838e-05
5.17175e-05
4.60807e-05
3.69617e-05
3.59309e-05
2.4233e-05
2.75057e-05
1.35209e-05
2.07896e-05
4.66817e-06
1.56068e-05
-2.46321e-06
1.16937e-05
-7.91272e-06
8.73895e-06
-1.1602e-05
6.40765e-06
-1.33519e-05
4.36497e-06
-1.29192e-05
2.30722e-06
-1.00347e-05
-4.39324e-06
5.34828e-06
6.79565e-06
2.32845e-05
3.67929e-05
4.46134e-05
6.65523e-05
6.24654e-05
8.70432e-05
7.33371e-05
9.56806e-05
7.67361e-05
9.39572e-05
7.40631e-05
8.5095e-05
6.73641e-05
7.22947e-05
5.85638e-05
5.80179e-05
4.91483e-05
4.38771e-05
4.01071e-05
3.07743e-05
3.19993e-05
1.91287e-05
2.50653e-05
9.10225e-06
1.93298e-05
7.72313e-07
1.46805e-05
-5.76341e-06
1.09205e-05
-1.03421e-05
7.80678e-06
-1.27382e-05
5.08452e-06
-1.2697e-05
2.52807e-06
-9.97826e-06
-4.36515e-06
1.26544e-06
3.03021e-06
1.16848e-05
2.38735e-05
2.72117e-05
4.85255e-05
4.27821e-05
6.89728e-05
5.47182e-05
8.12445e-05
6.14112e-05
8.47642e-05
6.29595e-05
8.10467e-05
6.0405e-05
7.23492e-05
5.50929e-05
6.08299e-05
4.82835e-05
4.81865e-05
4.09707e-05
3.5587e-05
3.38391e-05
2.37603e-05
2.72965e-05
1.31449e-05
2.15343e-05
4.03456e-06
1.65871e-05
-3.31617e-06
1.23813e-05
-8.6363e-06
8.77486e-06
-1.16317e-05
5.59544e-06
-1.20176e-05
2.68906e-06
-9.57188e-06
-4.17606e-06
-6.67853e-07
1.19806e-06
4.87559e-06
1.58301e-05
1.52954e-05
3.56058e-05
2.75005e-05
5.42676e-05
3.84948e-05
6.77502e-05
4.63563e-05
7.44027e-05
5.04059e-05
7.44971e-05
5.08879e-05
6.93671e-05
4.85452e-05
6.06727e-05
4.42764e-05
4.99552e-05
3.89195e-05
3.84439e-05
3.3146e-05
2.70338e-05
2.7434e-05
1.63569e-05
2.20835e-05
6.88509e-06
1.72477e-05
-9.80366e-07
1.29652e-05
-6.85378e-06
9.18961e-06
-1.03561e-05
5.82259e-06
-1.11506e-05
2.76278e-06
-9.01209e-06
-3.91327e-06
-1.67277e-06
3.70825e-07
6.74184e-07
1.09831e-05
7.04122e-06
2.67387e-05
1.58334e-05
4.29755e-05
2.4942e-05
5.61417e-05
3.26025e-05
6.42421e-05
3.77963e-05
6.68033e-05
4.02386e-05
6.44249e-05
4.01672e-05
5.8244e-05
3.81013e-05
4.95212e-05
3.46461e-05
3.93991e-05
3.03694e-05
2.88105e-05
2.57392e-05
1.84871e-05
2.11055e-05
9.01872e-06
1.67035e-05
9.21703e-07
1.26632e-05
-5.31343e-06
9.02132e-06
-9.21424e-06
5.73832e-06
-1.03676e-05
2.73694e-06
-8.51073e-06
-3.67634e-06
-2.29943e-06
1.70262e-07
-2.15685e-06
8.34054e-06
1.09649e-06
2.09854e-05
6.85939e-06
3.47126e-05
1.38126e-05
4.66886e-05
2.05401e-05
5.50146e-05
2.59657e-05
5.88777e-05
2.95084e-05
5.83822e-05
3.10378e-05
5.42146e-05
3.07396e-05
4.73193e-05
2.89725e-05
3.86661e-05
2.61548e-05
2.91282e-05
2.26914e-05
1.94505e-05
1.89355e-05
1.02746e-05
1.51702e-05
2.18698e-06
1.15974e-05
-4.24059e-06
8.32515e-06
-8.44195e-06
5.35833e-06
-9.90074e-06
2.61242e-06
-8.26482e-06
-3.56394e-06
-2.80082e-06
4.71104e-07
-4.30265e-06
7.34235e-06
-3.44981e-06
1.76325e-05
-2.03748e-07
2.89665e-05
4.71258e-06
3.92723e-05
1.02462e-05
4.6981e-05
1.54007e-05
5.12232e-05
1.94618e-05
5.18211e-05
2.20569e-05
4.91196e-05
2.31103e-05
4.37659e-05
2.27563e-05
3.65201e-05
2.12521e-05
2.81324e-05
1.8911e-05
1.92916e-05
1.60578e-05
1.06278e-05
1.29994e-05
2.74539e-06
9.99625e-06
-3.73742e-06
7.22484e-06
-8.17052e-06
4.73101e-06
-9.90688e-06
2.39823e-06
-8.43202e-06
-3.66573e-06
-3.28746e-06
1.25859e-06
-6.12283e-06
7.67774e-06
-7.13453e-06
1.61442e-05
-5.87268e-06
2.52046e-05
-2.6584e-06
3.3558e-05
1.74152e-06
4.00811e-05
6.44835e-06
4.40164e-05
1.07078e-05
4.50616e-05
1.40027e-05
4.33247e-05
1.60682e-05
3.92005e-05
1.68527e-05
3.32356e-05
1.64615e-05
2.60236e-05
1.51052e-05
1.81479e-05
1.30617e-05
1.01713e-05
1.06456e-05
2.66145e-06
8.17206e-06
-3.76389e-06
5.89707e-06
-8.39553e-06
3.92519e-06
-1.0435e-05
2.10435e-06
-9.11115e-06
-4.06137e-06
-3.81432e-06
2.57292e-06
-7.77684e-06
9.14029e-06
-1.01869e-05
1.60543e-05
-1.03501e-05
2.28678e-05
-8.36932e-06
2.90771e-05
-4.83228e-06
3.4044e-05
-5.17549e-07
3.72017e-05
3.82581e-06
3.82183e-05
7.60512e-06
3.70454e-05
1.04297e-05
3.38759e-05
1.21051e-05
2.90603e-05
1.26034e-05
2.30253e-05
1.20322e-05
1.62191e-05
1.06101e-05
9.09342e-06
8.64681e-06
2.12476e-06
6.51221e-06
-4.12931e-06
4.56664e-06
-8.94998e-06
3.02293e-06
-1.13913e-05
1.73387e-06
-1.03221e-05
-4.82749e-06
-4.40977e-06
4.48266e-06
-9.27472e-06
1.15053e-05
-1.25572e-05
1.68368e-05
-1.35024e-05
2.1313e-05
-1.21768e-05
2.52514e-05
-9.1005e-06
2.84676e-05
-4.98399e-06
3.05851e-05
-5.45479e-07
3.12798e-05
3.59967e-06
3.04003e-05
6.99074e-06
2.79848e-05
9.33321e-06
2.42178e-05
1.049e-05
1.93686e-05
1.04688e-05
1.37402e-05
9.41647e-06
7.64579e-06
7.61866e-06
1.42258e-06
5.49163e-06
-4.50229e-06
3.52694e-06
-9.48531e-06
2.13017e-06
-1.24945e-05
1.27846e-06
-1.19704e-05
-6.04902e-06
-5.07383e-06
7.05644e-06
-1.0449e-05
1.43805e-05
-1.38664e-05
1.77543e-05
-1.47965e-05
1.97432e-05
-1.34594e-05
2.14143e-05
-1.03911e-05
2.28993e-05
-6.24435e-06
2.39383e-05
-1.67324e-06
2.42086e-05
2.73711e-06
2.34899e-05
6.51024e-06
2.17117e-05
9.29595e-06
1.89321e-05
1.08749e-05
1.52896e-05
1.11613e-05
1.09539e-05
1.0213e-05
6.09412e-06
8.25598e-06
8.7962e-07
5.71431e-06
-4.46062e-06
3.20862e-06
-9.47962e-06
1.43627e-06
-1.32222e-05
7.34203e-07
-1.37683e-05
-7.81481e-06
-5.7102e-06
1.02666e-05
-1.07824e-05
1.69526e-05
-1.32218e-05
1.76937e-05
-1.31693e-05
1.71907e-05
-1.11492e-05
1.68943e-05
-7.71472e-06
1.69648e-05
-3.41107e-06
1.71347e-05
1.23455e-06
1.7063e-05
5.72995e-06
1.64945e-05
9.6402e-06
1.53014e-05
1.26072e-05
1.34652e-05
1.43627e-05
1.1034e-05
1.47398e-05
8.07678e-06
1.36906e-05
4.64336e-06
1.13256e-05
7.44613e-07
7.98519e-06
-3.6202e-06
4.33016e-06
-8.32458e-06
1.38326e-06
-1.27753e-05
1.82793e-07
-1.50679e-05
-1.0132e-05
-5.8766e-06
1.36432e-05
-8.91247e-06
1.74884e-05
-8.79601e-06
1.50772e-05
-6.80543e-06
1.27001e-05
-3.68063e-06
1.12695e-05
1.82899e-07
1.06013e-05
4.48214e-06
1.03355e-05
8.90696e-06
1.01382e-05
1.31233e-05
9.77811e-06
1.67925e-05
9.13214e-06
1.95985e-05
8.1592e-06
2.12679e-05
6.86457e-06
2.15824e-05
5.26226e-06
2.03889e-05
3.33687e-06
1.76273e-05
1.0062e-06
1.34092e-05
-1.90212e-06
8.18178e-06
-5.59712e-06
3.06205e-06
-1.01556e-05
5.20709e-08
-1.45579e-05
-1.258e-05
-3.55252e-06
1.46958e-05
-1.16344e-06
1.25993e-05
2.99096e-06
8.42274e-06
7.08806e-06
6.10295e-06
1.09111e-05
4.94644e-06
1.45932e-05
4.41927e-06
1.82235e-05
4.20509e-06
2.17644e-05
4.09733e-06
2.50694e-05
3.97311e-06
2.793e-05
3.77159e-06
3.01177e-05
3.47141e-06
3.14112e-05
3.07107e-06
3.16028e-05
2.57072e-06
3.04878e-05
1.95181e-06
2.78449e-05
1.14911e-06
2.3455e-05
-1.22866e-08
1.71545e-05
-1.79659e-06
9.3249e-06
-4.82593e-06
2.07204e-06
-9.80502e-06
-1.30079e-05
1.21958e-05
2.22952e-05
2.82179e-05
3.18208e-05
3.42672e-05
3.61865e-05
3.78915e-05
3.94889e-05
4.0962e-05
4.22336e-05
4.3205e-05
4.37761e-05
4.38469e-05
4.32987e-05
4.19478e-05
3.94355e-05
3.51389e-05
2.78129e-05
1.55079e-05
)
;

boundaryField
{
    movingWall
    {
        type            calculated;
        value           uniform 0;
    }
    fixedWalls
    {
        type            calculated;
        value           uniform 0;
    }
    frontAndBack
    {
        type            empty;
        value           nonuniform 0();
    }
}


// ************************************************************************* //
