/*--------------------------------*- C++ -*----------------------------------*\
| =========                 |                                                 |
| \\      /  F ield         | OpenFOAM: The Open Source CFD Toolbox           |
|  \\    /   O peration     | Version:  2.1.x                                 |
|   \\  /    A nd           | Web:      www.OpenFOAM.org                      |
|    \\/     M anipulation  |                                                 |
\*---------------------------------------------------------------------------*/
FoamFile
{
    version     2.0;
    format      ascii;
    class       volVectorField;
    location    "0.5";
    object      U;
}
// * * * * * * * * * * * * * * * * * * * * * * * * * * * * * * * * * * * * * //

dimensions      [0 1 -1 0 0 0 0];

internalField   nonuniform List<vector> 
400
(
(1.83397 1.83418 0)
(8.92987 1.77788 0)
(5.00203 0.905467 0)
(1.57775 0.480094 0)
(0.673843 0.245621 0)
(0.366364 0.0969445 0)
(0.156147 0.0209142 0)
(0.0432522 -0.0110684 0)
(-0.00846054 -0.0227274 0)
(-0.0334963 -0.0266235 0)
(-0.0456744 -0.0280992 0)
(-0.0497996 -0.0289887 0)
(-0.0478888 -0.0298761 0)
(-0.0409633 -0.0308747 0)
(-0.0297877 -0.0318762 0)
(-0.0153678 -0.0326252 0)
(0.000726882 -0.0326907 0)
(0.0158748 -0.0312647 0)
(0.0240718 -0.0265257 0)
(0.0126704 -0.0141875 0)
(1.77466 8.94225 0)
(6.46567 6.48242 0)
(5.14813 3.56223 0)
(3.01195 1.9885 0)
(1.93765 1.10315 0)
(1.28544 0.555809 0)
(0.784021 0.249912 0)
(0.449561 0.0937854 0)
(0.244085 0.0151192 0)
(0.116234 -0.0265964 0)
(0.0367495 -0.0510419 0)
(-0.00977753 -0.0672964 0)
(-0.0325871 -0.0794797 0)
(-0.0376083 -0.0892287 0)
(-0.0292558 -0.0967904 0)
(-0.0117565 -0.101498 0)
(0.0100048 -0.101877 0)
(0.0297471 -0.0953368 0)
(0.0375099 -0.07709 0)
(0.0183989 -0.0378214 0)
(0.900247 5.03378 0)
(3.5457 5.19977 0)
(3.70518 3.75829 0)
(3.10485 2.7111 0)
(2.51626 1.86693 0)
(1.91893 1.1785 0)
(1.35912 0.694781 0)
(0.919357 0.386532 0)
(0.602509 0.194957 0)
(0.379643 0.0741879 0)
(0.226244 -0.00498369 0)
(0.124688 -0.0600232 0)
(0.0620472 -0.100624 0)
(0.0288023 -0.13149 0)
(0.0173996 -0.15411 0)
(0.0209094 -0.167773 0)
(0.032133 -0.170048 0)
(0.043035 -0.156821 0)
(0.043204 -0.121784 0)
(0.0195383 -0.0552473 0)
(0.476193 1.61659 0)
(1.97637 3.09428 0)
(2.66643 3.20095 0)
(2.77535 2.86643 0)
(2.57222 2.29266 0)
(2.17588 1.67015 0)
(1.71438 1.14144 0)
(1.28859 0.741764 0)
(0.936391 0.453758 0)
(0.660692 0.24952 0)
(0.453444 0.103682 0)
(0.303581 -0.00306366 0)
(0.200041 -0.0834093 0)
(0.133019 -0.144417 0)
(0.0938422 -0.188846 0)
(0.0743433 -0.216269 0)
(0.0663414 -0.223838 0)
(0.0613764 -0.206749 0)
(0.049755 -0.158376 0)
(0.0204708 -0.0697808 0)
(0.243773 0.713858 0)
(1.09636 2.03821 0)
(1.83539 2.64925 0)
(2.21831 2.71216 0)
(2.28493 2.41205 0)
(2.11938 1.95105 0)
(1.8244 1.47815 0)
(1.48944 1.06238 0)
(1.16925 0.723261 0)
(0.890083 0.4574 0)
(0.661096 0.252144 0)
(0.481801 0.0934355 0)
(0.347025 -0.0300189 0)
(0.249816 -0.125362 0)
(0.182682 -0.195675 0)
(0.137905 -0.240627 0)
(0.107604 -0.257245 0)
(0.0838319 -0.240627 0)
(0.0581679 -0.184459 0)
(0.0218772 -0.080694 0)
(0.0964037 0.408148 0)
(0.552569 1.39967 0)
(1.15845 2.08318 0)
(1.61506 2.36233 0)
(1.84647 2.30221 0)
(1.86915 2.03128 0)
(1.73943 1.6695 0)
(1.52347 1.29595 0)
(1.27537 0.95292 0)
(1.03124 0.657564 0)
(0.81159 0.411946 0)
(0.625501 0.211131 0)
(0.474765 0.0487609 0)
(0.356986 -0.0799181 0)
(0.267507 -0.176873 0)
(0.200437 -0.24121 0)
(0.149231 -0.269687 0)
(0.107129 -0.257472 0)
(0.0673302 -0.198843 0)
(0.0235762 -0.0869327 0)
(0.0208479 0.198465 0)
(0.247984 0.90714 0)
(0.681729 1.5468 0)
(1.10205 1.94005 0)
(1.39698 2.05904 0)
(1.53521 1.95982 0)
(1.53266 1.72497 0)
(1.42846 1.4267 0)
(1.26487 1.1155 0)
(1.07671 0.821185 0)
(0.888559 0.557959 0)
(0.715348 0.330408 0)
(0.564488 0.138672 0)
(0.438161 -0.0179598 0)
(0.335168 -0.139062 0)
(0.252204 -0.222369 0)
(0.18471 -0.263949 0)
(0.127538 -0.258896 0)
(0.0756458 -0.202133 0)
(0.0252104 -0.0883887 0)
(-0.011158 0.0855637 0)
(0.091678 0.577981 0)
(0.376293 1.1231 0)
(0.712362 1.54435 0)
(1.00023 1.76768 0)
(1.18893 1.79683 0)
(1.26728 1.67726 0)
(1.25041 1.46402 0)
(1.16483 1.20473 0)
(1.03792 0.933914 0)
(0.892627 0.673373 0)
(0.745651 0.435292 0)
(0.607606 0.22604 0)
(0.484146 0.049458 0)
(0.377249 -0.0909297 0)
(0.286312 -0.190847 0)
(0.208993 -0.245186 0)
(0.141907 -0.248643 0)
(0.081671 -0.196662 0)
(0.0264424 -0.0858952 0)
(-0.0230886 0.0345169 0)
(0.0118407 0.37719 0)
(0.184166 0.818248 0)
(0.428375 1.2147 0)
(0.673283 1.4818 0)
(0.867807 1.59296 0)
(0.987098 1.56362 0)
(1.02911 1.42906 0)
(1.00585 1.2279 0)
(0.935155 0.99334 0)
(0.835106 0.750216 0)
(0.72103 0.515442 0)
(0.604373 0.300189 0)
(0.492746 0.112382 0)
(0.3905 -0.0412963 0)
(0.299399 -0.154253 0)
(0.21921 -0.219808 0)
(0.148243 -0.231849 0)
(0.0844216 -0.18603 0)
(0.0270312 -0.0809833 0)
(-0.0275208 0.0112337 0)
(-0.032103 0.255193 0)
(0.0598849 0.606051 0)
(0.222646 0.956325 0)
(0.412297 1.22833 0)
(0.586989 1.38287 0)
(0.718272 1.41568 0)
(0.794064 1.34496 0)
(0.81532 1.19845 0)
(0.790806 1.00452 0)
(0.73254 0.787428 0)
(0.65265 0.565989 0)
(0.561621 0.354294 0)
(0.467618 0.163282 0)
(0.376425 0.00233067 0)
(0.291636 -0.119703 0)
(0.214854 -0.194318 0)
(0.145886 -0.214131 0)
(0.0834651 -0.174467 0)
(0.0268514 -0.07558 0)
(-0.0298504 0.00236153 0)
(-0.060083 0.184028 0)
(-0.025731 0.463959 0)
(0.0704347 0.763219 0)
(0.205391 1.01766 0)
(0.348777 1.18682 0)
(0.474232 1.25617 0)
(0.565195 1.2316 0)
(0.615281 1.13083 0)
(0.625882 0.975923 0)
(0.603114 0.788271 0)
(0.555172 0.586311 0)
(0.490507 0.385187 0)
(0.416788 0.197532 0)
(0.340415 0.0346149 0)
(0.266285 -0.0927959 0)
(0.19757 -0.17429 0)
(0.135415 -0.200704 0)
(0.0788619 -0.166187 0)
(0.0258709 -0.0717143 0)
(-0.0320552 0.00392529 0)
(-0.0815418 0.149689 0)
(-0.0902617 0.375896 0)
(-0.0468769 0.625776 0)
(0.0400203 0.850274 0)
(0.150103 1.01394 0)
(0.261221 1.09889 0)
(0.355753 1.10345 0)
(0.423029 1.03739 0)
(0.459046 0.916462 0)
(0.464879 0.758028 0)
(0.444811 0.578555 0)
(0.404782 0.392665 0)
(0.351307 0.21336 0)
(0.290803 0.0528027 0)
(0.229086 -0.0769127 0)
(0.170771 -0.163553 0)
(0.118385 -0.195614 0)
(0.0710078 -0.164842 0)
(0.024099 -0.0712979 0)
(-0.0349375 0.0150263 0)
(-0.10103 0.144406 0)
(-0.143422 0.329921 0)
(-0.140912 0.533408 0)
(-0.0927416 0.72106 0)
(-0.0120421 0.865595 0)
(0.083141 0.950152 0)
(0.175746 0.969312 0)
(0.252924 0.927144 0)
(0.307047 0.833832 0)
(0.335248 0.702399 0)
(0.338335 0.546387 0)
(0.319659 0.378713 0)
(0.28423 0.211544 0)
(0.238088 0.0568569 0)
(0.187725 -0.0727426 0)
(0.13928 -0.16351 0)
(0.0970603 -0.201072 0)
(0.0604288 -0.17309 0)
(0.0215051 -0.0760367 0)
(-0.0389539 0.0361344 0)
(-0.120655 0.163555 0)
(-0.189442 0.316521 0)
(-0.216591 0.475335 0)
(-0.196131 0.621723 0)
(-0.137159 0.737991 0)
(-0.0547929 0.810692 0)
(0.0349559 0.833165 0)
(0.118385 0.805682 0)
(0.185665 0.733887 0)
(0.231087 0.626642 0)
(0.252588 0.494153 0)
(0.251085 0.346839 0)
(0.229907 0.195025 0)
(0.194407 0.0493994 0)
(0.151558 -0.0779837 0)
(0.109227 -0.172559 0)
(0.0743201 -0.216808 0)
(0.047607 -0.192245 0)
(0.0179165 -0.0874964 0)
(-0.044516 0.0684794 0)
(-0.141009 0.203365 0)
(-0.228068 0.326384 0)
(-0.272213 0.439843 0)
(-0.266521 0.541702 0)
(-0.219157 0.624023 0)
(-0.143677 0.677527 0)
(-0.0549676 0.695585 0)
(0.0333445 0.676003 0)
(0.110415 0.620878 0)
(0.168727 0.535398 0)
(0.20403 0.426443 0)
(0.215065 0.301531 0)
(0.203364 0.168403 0)
(0.173215 0.035397 0)
(0.131698 -0.0873038 0)
(0.0884511 -0.185609 0)
(0.0540399 -0.239309 0)
(0.0330281 -0.221782 0)
(0.012943 -0.10729 0)
(-0.0519496 0.113751 0)
(-0.160882 0.258445 0)
(-0.253751 0.347602 0)
(-0.298335 0.412823 0)
(-0.292137 0.468393 0)
(-0.244999 0.514704 0)
(-0.169683 0.545889 0)
(-0.0795854 0.555567 0)
(0.0126995 0.539884 0)
(0.0964559 0.498294 0)
(0.16339 0.433013 0)
(0.2078 0.347955 0)
(0.226602 0.247748 0)
(0.21942 0.137179 0)
(0.18892 0.0213853 0)
(0.141436 -0.0927944 0)
(0.0877068 -0.193824 0)
(0.0425558 -0.260804 0)
(0.0180117 -0.258393 0)
(0.00616875 -0.137418 0)
(-0.0604595 0.17443 0)
(-0.174598 0.318389 0)
(-0.251735 0.36203 0)
(-0.274461 0.376085 0)
(-0.251114 0.387483 0)
(-0.193924 0.400765 0)
(-0.114035 0.411305 0)
(-0.0221629 0.412531 0)
(0.0714189 0.399499 0)
(0.157346 0.369966 0)
(0.22762 0.32407 0)
(0.275927 0.263455 0)
(0.297851 0.190307 0)
(0.291108 0.106624 0)
(0.256057 0.014042 0)
(0.196793 -0.0851501 0)
(0.122997 -0.184693 0)
(0.0521906 -0.267633 0)
(0.00758425 -0.293926 0)
(-0.001574 -0.180972 0)
(-0.06307 0.251214 0)
(-0.16313 0.360366 0)
(-0.188323 0.341201 0)
(-0.162662 0.307451 0)
(-0.1091 0.285355 0)
(-0.0377728 0.275761 0)
(0.0452364 0.272551 0)
(0.133993 0.268786 0)
(0.222002 0.259314 0)
(0.302418 0.241351 0)
(0.368584 0.214056 0)
(0.414532 0.177743 0)
(0.435296 0.133006 0)
(0.427074 0.0798955 0)
(0.387536 0.0172811 0)
(0.316771 -0.0570613 0)
(0.219167 -0.144378 0)
(0.108293 -0.239027 0)
(0.0182731 -0.309595 0)
(-0.00284058 -0.238637 0)
(-0.019431 0.306112 0)
(-0.061347 0.331163 0)
(0.0110441 0.252419 0)
(0.100896 0.19424 0)
(0.18077 0.161678 0)
(0.255151 0.145969 0)
(0.328216 0.139225 0)
(0.400449 0.13545 0)
(0.46978 0.130775 0)
(0.532473 0.123163 0)
(0.584014 0.111845 0)
(0.619826 0.0967252 0)
(0.635608 0.0777864 0)
(0.627272 0.0544506 0)
(0.590666 0.0248086 0)
(0.521385 -0.0153185 0)
(0.413806 -0.07325 0)
(0.264194 -0.157913 0)
(0.104372 -0.264333 0)
(0.0420443 -0.273519 0)
(0.286515 0.159819 0)
(0.359359 0.146123 0)
(0.502121 0.0952267 0)
(0.603937 0.0640736 0)
(0.663864 0.0483603 0)
(0.705783 0.0411269 0)
(0.741289 0.0381275 0)
(0.774226 0.0368131 0)
(0.805156 0.0357533 0)
(0.832977 0.034255 0)
(0.855831 0.0320611 0)
(0.871682 0.0291203 0)
(0.878541 0.0253883 0)
(0.874304 0.020606 0)
(0.856155 0.0139686 0)
(0.81914 0.00348925 0)
(0.752239 -0.0153126 0)
(0.631304 -0.0502506 0)
(0.452576 -0.108416 0)
(0.324304 -0.137682 0)
)
;

boundaryField
{
    movingWall
    {
        type            fixedValue;
        value           uniform (1 0 0);
    }
    fixedWalls
    {
        type            fixedValue;
        value           uniform (0 0 0);
    }
    frontAndBack
    {
        type            empty;
    }
}


// ************************************************************************* //
