# vtk DataFile Version 2.0
sampleSurface
ASCII
DATASET POLYDATA
POINTS 502 float
-0.0206 0 -0.0005
-0.0190172 0 -0.0005
-0.0190172 0 0.0005
-0.0206 0 0.0005
-0.0174976 0 -0.0005
-0.0174976 0 0.0005
-0.0160387 0 -0.0005
-0.0160387 0 0.0005
-0.0146381 0 -0.0005
-0.0146381 0 0.0005
-0.0132934 0 -0.0005
-0.0132934 0 0.0005
-0.0120025 0 -0.0005
-0.0120025 0 0.0005
-0.0107632 0 -0.0005
-0.0107632 0 0.0005
-0.00957337 0 -0.0005
-0.00957337 0 0.0005
-0.00843108 0 -0.0005
-0.00843108 0 0.0005
-0.00733443 0 -0.0005
-0.00733443 0 0.0005
-0.0062816 0 -0.0005
-0.0062816 0 0.0005
-0.00527083 0 -0.0005
-0.00527083 0 0.0005
-0.00430044 0 -0.0005
-0.00430044 0 0.0005
-0.00336883 0 -0.0005
-0.00336883 0 0.0005
-0.00247443 0 -0.0005
-0.00247443 0 0.0005
-0.00161577 0 -0.0005
-0.00161577 0 0.0005
-0.000791418 0 -0.0005
-0.000791418 0 0.0005
0 0 -0.0005
0 0 0.0005
0 -0.005 -0.0005
0 -0.005 0.0005
0 -0.00423364 0.0005
0 -0.00423364 -0.0005
0 -0.00353089 0.0005
0 -0.00353089 -0.0005
0 -0.00288647 0.0005
0 -0.00288647 -0.0005
0 -0.00229553 0.0005
0 -0.00229553 -0.0005
0 -0.00175363 0.0005
0 -0.00175363 -0.0005
0 -0.00125671 0.0005
0 -0.00125671 -0.0005
0 -0.000801036 0.0005
0 -0.000801036 -0.0005
0 -0.000383178 0.0005
0 -0.000383178 -0.0005
0 -0.0254 -0.0005
0 -0.0254 0.0005
0 -0.0242667 0.0005
0 -0.0242667 -0.0005
0 -0.0231333 0.0005
0 -0.0231333 -0.0005
0 -0.022 0.0005
0 -0.022 -0.0005
0 -0.0208667 0.0005
0 -0.0208667 -0.0005
0 -0.0197333 0.0005
0 -0.0197333 -0.0005
0 -0.0186 0.0005
0 -0.0186 -0.0005
0 -0.0174667 0.0005
0 -0.0174667 -0.0005
0 -0.0163333 0.0005
0 -0.0163333 -0.0005
0 -0.0152 0.0005
0 -0.0152 -0.0005
0 -0.0140667 0.0005
0 -0.0140667 -0.0005
0 -0.0129333 0.0005
0 -0.0129333 -0.0005
0 -0.0118 0.0005
0 -0.0118 -0.0005
0 -0.0106667 0.0005
0 -0.0106667 -0.0005
0 -0.00953333 0.0005
0 -0.00953333 -0.0005
0 -0.0084 0.0005
0 -0.0084 -0.0005
0 -0.00726667 0.0005
0 -0.00726667 -0.0005
0 -0.00613333 0.0005
0 -0.00613333 -0.0005
0.000528387 -0.0254 -0.0005
0.000528387 -0.0254 0.0005
0.00106088 -0.0254 -0.0005
0.00106088 -0.0254 0.0005
0.00159752 -0.0254 -0.0005
0.00159752 -0.0254 0.0005
0.00213833 -0.0254 -0.0005
0.00213833 -0.0254 0.0005
0.00268334 -0.0254 -0.0005
0.00268334 -0.0254 0.0005
0.00323259 -0.0254 -0.0005
0.00323259 -0.0254 0.0005
0.00378611 -0.0254 -0.0005
0.00378611 -0.0254 0.0005
0.00434393 -0.0254 -0.0005
0.00434393 -0.0254 0.0005
0.00490609 -0.0254 -0.0005
0.00490609 -0.0254 0.0005
0.00547262 -0.0254 -0.0005
0.00547262 -0.0254 0.0005
0.00604356 -0.0254 -0.0005
0.00604356 -0.0254 0.0005
0.00661893 -0.0254 -0.0005
0.00661893 -0.0254 0.0005
0.00719878 -0.0254 -0.0005
0.00719878 -0.0254 0.0005
0.00778313 -0.0254 -0.0005
0.00778313 -0.0254 0.0005
0.00837203 -0.0254 -0.0005
0.00837203 -0.0254 0.0005
0.00896551 -0.0254 -0.0005
0.00896551 -0.0254 0.0005
0.0095636 -0.0254 -0.0005
0.0095636 -0.0254 0.0005
0.0101663 -0.0254 -0.0005
0.0101663 -0.0254 0.0005
0.0107738 -0.0254 -0.0005
0.0107738 -0.0254 0.0005
0.0113859 -0.0254 -0.0005
0.0113859 -0.0254 0.0005
0.0120028 -0.0254 -0.0005
0.0120028 -0.0254 0.0005
0.0126245 -0.0254 -0.0005
0.0126245 -0.0254 0.0005
0.0132511 -0.0254 -0.0005
0.0132511 -0.0254 0.0005
0.0138825 -0.0254 -0.0005
0.0138825 -0.0254 0.0005
0.0145188 -0.0254 -0.0005
0.0145188 -0.0254 0.0005
0.0151601 -0.0254 -0.0005
0.0151601 -0.0254 0.0005
0.0158063 -0.0254 -0.0005
0.0158063 -0.0254 0.0005
0.0164576 -0.0254 -0.0005
0.0164576 -0.0254 0.0005
0.0171139 -0.0254 -0.0005
0.0171139 -0.0254 0.0005
0.0177754 -0.0254 -0.0005
0.0177754 -0.0254 0.0005
0.018442 -0.0254 -0.0005
0.018442 -0.0254 0.0005
0.0191137 -0.0254 -0.0005
0.0191137 -0.0254 0.0005
0.0197907 -0.0254 -0.0005
0.0197907 -0.0254 0.0005
0.020473 -0.0254 -0.0005
0.020473 -0.0254 0.0005
0.0211606 -0.0254 -0.0005
0.0211606 -0.0254 0.0005
0.0218535 -0.0254 -0.0005
0.0218535 -0.0254 0.0005
0.0225517 -0.0254 -0.0005
0.0225517 -0.0254 0.0005
0.0232555 -0.0254 -0.0005
0.0232555 -0.0254 0.0005
0.0239647 -0.0254 -0.0005
0.0239647 -0.0254 0.0005
0.0246794 -0.0254 -0.0005
0.0246794 -0.0254 0.0005
0.0253996 -0.0254 -0.0005
0.0253996 -0.0254 0.0005
0.0261255 -0.0254 -0.0005
0.0261255 -0.0254 0.0005
0.026857 -0.0254 -0.0005
0.026857 -0.0254 0.0005
0.0275942 -0.0254 -0.0005
0.0275942 -0.0254 0.0005
0.0283371 -0.0254 -0.0005
0.0283371 -0.0254 0.0005
0.0290858 -0.0254 -0.0005
0.0290858 -0.0254 0.0005
0.0298403 -0.0254 -0.0005
0.0298403 -0.0254 0.0005
0.0306007 -0.0254 -0.0005
0.0306007 -0.0254 0.0005
0.031367 -0.0254 -0.0005
0.031367 -0.0254 0.0005
0.0321393 -0.0254 -0.0005
0.0321393 -0.0254 0.0005
0.0329175 -0.0254 -0.0005
0.0329175 -0.0254 0.0005
0.0337019 -0.0254 -0.0005
0.0337019 -0.0254 0.0005
0.0344923 -0.0254 -0.0005
0.0344923 -0.0254 0.0005
0.0352888 -0.0254 -0.0005
0.0352888 -0.0254 0.0005
0.0360916 -0.0254 -0.0005
0.0360916 -0.0254 0.0005
0.0369006 -0.0254 -0.0005
0.0369006 -0.0254 0.0005
0.0377158 -0.0254 -0.0005
0.0377158 -0.0254 0.0005
0.0385375 -0.0254 -0.0005
0.0385375 -0.0254 0.0005
0.0393655 -0.0254 -0.0005
0.0393655 -0.0254 0.0005
0.0401999 -0.0254 -0.0005
0.0401999 -0.0254 0.0005
0.0410408 -0.0254 -0.0005
0.0410408 -0.0254 0.0005
0.0418883 -0.0254 -0.0005
0.0418883 -0.0254 0.0005
0.0427424 -0.0254 -0.0005
0.0427424 -0.0254 0.0005
0.0436031 -0.0254 -0.0005
0.0436031 -0.0254 0.0005
0.0444704 -0.0254 -0.0005
0.0444704 -0.0254 0.0005
0.0453446 -0.0254 -0.0005
0.0453446 -0.0254 0.0005
0.0462255 -0.0254 -0.0005
0.0462255 -0.0254 0.0005
0.0471133 -0.0254 -0.0005
0.0471133 -0.0254 0.0005
0.048008 -0.0254 -0.0005
0.048008 -0.0254 0.0005
0.0489096 -0.0254 -0.0005
0.0489096 -0.0254 0.0005
0.0498183 -0.0254 -0.0005
0.0498183 -0.0254 0.0005
0.050734 -0.0254 -0.0005
0.050734 -0.0254 0.0005
0.0516568 -0.0254 -0.0005
0.0516568 -0.0254 0.0005
0.0525868 -0.0254 -0.0005
0.0525868 -0.0254 0.0005
0.053524 -0.0254 -0.0005
0.053524 -0.0254 0.0005
0.0544686 -0.0254 -0.0005
0.0544686 -0.0254 0.0005
0.0554204 -0.0254 -0.0005
0.0554204 -0.0254 0.0005
0.0563797 -0.0254 -0.0005
0.0563797 -0.0254 0.0005
0.0573464 -0.0254 -0.0005
0.0573464 -0.0254 0.0005
0.0583206 -0.0254 -0.0005
0.0583206 -0.0254 0.0005
0.0593025 -0.0254 -0.0005
0.0593025 -0.0254 0.0005
0.0602919 -0.0254 -0.0005
0.0602919 -0.0254 0.0005
0.0612891 -0.0254 -0.0005
0.0612891 -0.0254 0.0005
0.0622939 -0.0254 -0.0005
0.0622939 -0.0254 0.0005
0.0633067 -0.0254 -0.0005
0.0633067 -0.0254 0.0005
0.0643272 -0.0254 -0.0005
0.0643272 -0.0254 0.0005
0.0653557 -0.0254 -0.0005
0.0653557 -0.0254 0.0005
0.0663923 -0.0254 -0.0005
0.0663923 -0.0254 0.0005
0.0674368 -0.0254 -0.0005
0.0674368 -0.0254 0.0005
0.0684895 -0.0254 -0.0005
0.0684895 -0.0254 0.0005
0.0695504 -0.0254 -0.0005
0.0695504 -0.0254 0.0005
0.0706195 -0.0254 -0.0005
0.0706195 -0.0254 0.0005
0.0716969 -0.0254 -0.0005
0.0716969 -0.0254 0.0005
0.0727828 -0.0254 -0.0005
0.0727828 -0.0254 0.0005
0.073877 -0.0254 -0.0005
0.073877 -0.0254 0.0005
0.0749798 -0.0254 -0.0005
0.0749798 -0.0254 0.0005
0.0760911 -0.0254 -0.0005
0.0760911 -0.0254 0.0005
0.0772111 -0.0254 -0.0005
0.0772111 -0.0254 0.0005
0.0783398 -0.0254 -0.0005
0.0783398 -0.0254 0.0005
0.0794772 -0.0254 -0.0005
0.0794772 -0.0254 0.0005
0.0806235 -0.0254 -0.0005
0.0806235 -0.0254 0.0005
0.0817787 -0.0254 -0.0005
0.0817787 -0.0254 0.0005
0.0829429 -0.0254 -0.0005
0.0829429 -0.0254 0.0005
0.0841162 -0.0254 -0.0005
0.0841162 -0.0254 0.0005
0.0852985 -0.0254 -0.0005
0.0852985 -0.0254 0.0005
0.0864901 -0.0254 -0.0005
0.0864901 -0.0254 0.0005
0.0876909 -0.0254 -0.0005
0.0876909 -0.0254 0.0005
0.0889011 -0.0254 -0.0005
0.0889011 -0.0254 0.0005
0.0901207 -0.0254 -0.0005
0.0901207 -0.0254 0.0005
0.0913497 -0.0254 -0.0005
0.0913497 -0.0254 0.0005
0.0925883 -0.0254 -0.0005
0.0925883 -0.0254 0.0005
0.0938366 -0.0254 -0.0005
0.0938366 -0.0254 0.0005
0.0950945 -0.0254 -0.0005
0.0950945 -0.0254 0.0005
0.0963622 -0.0254 -0.0005
0.0963622 -0.0254 0.0005
0.0976398 -0.0254 -0.0005
0.0976398 -0.0254 0.0005
0.0989273 -0.0254 -0.0005
0.0989273 -0.0254 0.0005
0.100225 -0.0254 -0.0005
0.100225 -0.0254 0.0005
0.101532 -0.0254 -0.0005
0.101532 -0.0254 0.0005
0.10285 -0.0254 -0.0005
0.10285 -0.0254 0.0005
0.104178 -0.0254 -0.0005
0.104178 -0.0254 0.0005
0.105517 -0.0254 -0.0005
0.105517 -0.0254 0.0005
0.106865 -0.0254 -0.0005
0.106865 -0.0254 0.0005
0.108225 -0.0254 -0.0005
0.108225 -0.0254 0.0005
0.109594 -0.0254 -0.0005
0.109594 -0.0254 0.0005
0.110975 -0.0254 -0.0005
0.110975 -0.0254 0.0005
0.112366 -0.0254 -0.0005
0.112366 -0.0254 0.0005
0.113768 -0.0254 -0.0005
0.113768 -0.0254 0.0005
0.115181 -0.0254 -0.0005
0.115181 -0.0254 0.0005
0.116605 -0.0254 -0.0005
0.116605 -0.0254 0.0005
0.11804 -0.0254 -0.0005
0.11804 -0.0254 0.0005
0.119486 -0.0254 -0.0005
0.119486 -0.0254 0.0005
0.120943 -0.0254 -0.0005
0.120943 -0.0254 0.0005
0.122412 -0.0254 -0.0005
0.122412 -0.0254 0.0005
0.123892 -0.0254 -0.0005
0.123892 -0.0254 0.0005
0.125384 -0.0254 -0.0005
0.125384 -0.0254 0.0005
0.126887 -0.0254 -0.0005
0.126887 -0.0254 0.0005
0.128402 -0.0254 -0.0005
0.128402 -0.0254 0.0005
0.129928 -0.0254 -0.0005
0.129928 -0.0254 0.0005
0.131467 -0.0254 -0.0005
0.131467 -0.0254 0.0005
0.133017 -0.0254 -0.0005
0.133017 -0.0254 0.0005
0.13458 -0.0254 -0.0005
0.13458 -0.0254 0.0005
0.136155 -0.0254 -0.0005
0.136155 -0.0254 0.0005
0.137742 -0.0254 -0.0005
0.137742 -0.0254 0.0005
0.139341 -0.0254 -0.0005
0.139341 -0.0254 0.0005
0.140953 -0.0254 -0.0005
0.140953 -0.0254 0.0005
0.142577 -0.0254 -0.0005
0.142577 -0.0254 0.0005
0.144214 -0.0254 -0.0005
0.144214 -0.0254 0.0005
0.145863 -0.0254 -0.0005
0.145863 -0.0254 0.0005
0.147526 -0.0254 -0.0005
0.147526 -0.0254 0.0005
0.149201 -0.0254 -0.0005
0.149201 -0.0254 0.0005
0.15089 -0.0254 -0.0005
0.15089 -0.0254 0.0005
0.152591 -0.0254 -0.0005
0.152591 -0.0254 0.0005
0.154306 -0.0254 -0.0005
0.154306 -0.0254 0.0005
0.156034 -0.0254 -0.0005
0.156034 -0.0254 0.0005
0.157775 -0.0254 -0.0005
0.157775 -0.0254 0.0005
0.159531 -0.0254 -0.0005
0.159531 -0.0254 0.0005
0.161299 -0.0254 -0.0005
0.161299 -0.0254 0.0005
0.163082 -0.0254 -0.0005
0.163082 -0.0254 0.0005
0.164878 -0.0254 -0.0005
0.164878 -0.0254 0.0005
0.166688 -0.0254 -0.0005
0.166688 -0.0254 0.0005
0.168513 -0.0254 -0.0005
0.168513 -0.0254 0.0005
0.170351 -0.0254 -0.0005
0.170351 -0.0254 0.0005
0.172204 -0.0254 -0.0005
0.172204 -0.0254 0.0005
0.174071 -0.0254 -0.0005
0.174071 -0.0254 0.0005
0.175953 -0.0254 -0.0005
0.175953 -0.0254 0.0005
0.177849 -0.0254 -0.0005
0.177849 -0.0254 0.0005
0.17976 -0.0254 -0.0005
0.17976 -0.0254 0.0005
0.181686 -0.0254 -0.0005
0.181686 -0.0254 0.0005
0.183627 -0.0254 -0.0005
0.183627 -0.0254 0.0005
0.185583 -0.0254 -0.0005
0.185583 -0.0254 0.0005
0.187555 -0.0254 -0.0005
0.187555 -0.0254 0.0005
0.189541 -0.0254 -0.0005
0.189541 -0.0254 0.0005
0.191543 -0.0254 -0.0005
0.191543 -0.0254 0.0005
0.193561 -0.0254 -0.0005
0.193561 -0.0254 0.0005
0.195594 -0.0254 -0.0005
0.195594 -0.0254 0.0005
0.197643 -0.0254 -0.0005
0.197643 -0.0254 0.0005
0.199708 -0.0254 -0.0005
0.199708 -0.0254 0.0005
0.201789 -0.0254 -0.0005
0.201789 -0.0254 0.0005
0.203886 -0.0254 -0.0005
0.203886 -0.0254 0.0005
0.206 -0.0254 -0.0005
0.206 -0.0254 0.0005
0.208047 -0.0251856 -0.0005
0.208047 -0.0251856 0.0005
0.210173 -0.0249628 -0.0005
0.210173 -0.0249628 0.0005
0.212382 -0.0247314 -0.0005
0.212382 -0.0247314 0.0005
0.214677 -0.024491 -0.0005
0.214677 -0.024491 0.0005
0.217061 -0.0242412 -0.0005
0.217061 -0.0242412 0.0005
0.219538 -0.0239817 -0.0005
0.219538 -0.0239817 0.0005
0.222112 -0.0237121 -0.0005
0.222112 -0.0237121 0.0005
0.224785 -0.023432 -0.0005
0.224785 -0.023432 0.0005
0.227563 -0.023141 -0.0005
0.227563 -0.023141 0.0005
0.230449 -0.0228387 -0.0005
0.230449 -0.0228387 0.0005
0.233447 -0.0225246 -0.0005
0.233447 -0.0225246 0.0005
0.236562 -0.0221983 -0.0005
0.236562 -0.0221983 0.0005
0.239797 -0.0218593 -0.0005
0.239797 -0.0218593 0.0005
0.243159 -0.0215071 -0.0005
0.243159 -0.0215071 0.0005
0.246652 -0.0211412 -0.0005
0.246652 -0.0211412 0.0005
0.250281 -0.0207611 -0.0005
0.250281 -0.0207611 0.0005
0.254051 -0.0203661 -0.0005
0.254051 -0.0203661 0.0005
0.257967 -0.0199558 -0.0005
0.257967 -0.0199558 0.0005
0.262036 -0.0195295 -0.0005
0.262036 -0.0195295 0.0005
0.266264 -0.0190867 -0.0005
0.266264 -0.0190867 0.0005
0.270655 -0.0186266 -0.0005
0.270655 -0.0186266 0.0005
0.275218 -0.0181486 -0.0005
0.275218 -0.0181486 0.0005
0.279959 -0.017652 -0.0005
0.279959 -0.017652 0.0005
0.284883 -0.017136 -0.0005
0.284883 -0.017136 0.0005
0.29 -0.0166 -0.0005
0.29 -0.0166 0.0005

POLYGONS 250 1250
4 0 1 2 3
4 1 4 5 2
4 4 6 7 5
4 6 8 9 7
4 8 10 11 9
4 10 12 13 11
4 12 14 15 13
4 14 16 17 15
4 16 18 19 17
4 18 20 21 19
4 20 22 23 21
4 22 24 25 23
4 24 26 27 25
4 26 28 29 27
4 28 30 31 29
4 30 32 33 31
4 32 34 35 33
4 34 36 37 35
4 38 39 40 41
4 41 40 42 43
4 43 42 44 45
4 45 44 46 47
4 47 46 48 49
4 49 48 50 51
4 51 50 52 53
4 53 52 54 55
4 55 54 37 36
4 56 57 58 59
4 59 58 60 61
4 61 60 62 63
4 63 62 64 65
4 65 64 66 67
4 67 66 68 69
4 69 68 70 71
4 71 70 72 73
4 73 72 74 75
4 75 74 76 77
4 77 76 78 79
4 79 78 80 81
4 81 80 82 83
4 83 82 84 85
4 85 84 86 87
4 87 86 88 89
4 89 88 90 91
4 91 90 39 38
4 56 92 93 57
4 92 94 95 93
4 94 96 97 95
4 96 98 99 97
4 98 100 101 99
4 100 102 103 101
4 102 104 105 103
4 104 106 107 105
4 106 108 109 107
4 108 110 111 109
4 110 112 113 111
4 112 114 115 113
4 114 116 117 115
4 116 118 119 117
4 118 120 121 119
4 120 122 123 121
4 122 124 125 123
4 124 126 127 125
4 126 128 129 127
4 128 130 131 129
4 130 132 133 131
4 132 134 135 133
4 134 136 137 135
4 136 138 139 137
4 138 140 141 139
4 140 142 143 141
4 142 144 145 143
4 144 146 147 145
4 146 148 149 147
4 148 150 151 149
4 150 152 153 151
4 152 154 155 153
4 154 156 157 155
4 156 158 159 157
4 158 160 161 159
4 160 162 163 161
4 162 164 165 163
4 164 166 167 165
4 166 168 169 167
4 168 170 171 169
4 170 172 173 171
4 172 174 175 173
4 174 176 177 175
4 176 178 179 177
4 178 180 181 179
4 180 182 183 181
4 182 184 185 183
4 184 186 187 185
4 186 188 189 187
4 188 190 191 189
4 190 192 193 191
4 192 194 195 193
4 194 196 197 195
4 196 198 199 197
4 198 200 201 199
4 200 202 203 201
4 202 204 205 203
4 204 206 207 205
4 206 208 209 207
4 208 210 211 209
4 210 212 213 211
4 212 214 215 213
4 214 216 217 215
4 216 218 219 217
4 218 220 221 219
4 220 222 223 221
4 222 224 225 223
4 224 226 227 225
4 226 228 229 227
4 228 230 231 229
4 230 232 233 231
4 232 234 235 233
4 234 236 237 235
4 236 238 239 237
4 238 240 241 239
4 240 242 243 241
4 242 244 245 243
4 244 246 247 245
4 246 248 249 247
4 248 250 251 249
4 250 252 253 251
4 252 254 255 253
4 254 256 257 255
4 256 258 259 257
4 258 260 261 259
4 260 262 263 261
4 262 264 265 263
4 264 266 267 265
4 266 268 269 267
4 268 270 271 269
4 270 272 273 271
4 272 274 275 273
4 274 276 277 275
4 276 278 279 277
4 278 280 281 279
4 280 282 283 281
4 282 284 285 283
4 284 286 287 285
4 286 288 289 287
4 288 290 291 289
4 290 292 293 291
4 292 294 295 293
4 294 296 297 295
4 296 298 299 297
4 298 300 301 299
4 300 302 303 301
4 302 304 305 303
4 304 306 307 305
4 306 308 309 307
4 308 310 311 309
4 310 312 313 311
4 312 314 315 313
4 314 316 317 315
4 316 318 319 317
4 318 320 321 319
4 320 322 323 321
4 322 324 325 323
4 324 326 327 325
4 326 328 329 327
4 328 330 331 329
4 330 332 333 331
4 332 334 335 333
4 334 336 337 335
4 336 338 339 337
4 338 340 341 339
4 340 342 343 341
4 342 344 345 343
4 344 346 347 345
4 346 348 349 347
4 348 350 351 349
4 350 352 353 351
4 352 354 355 353
4 354 356 357 355
4 356 358 359 357
4 358 360 361 359
4 360 362 363 361
4 362 364 365 363
4 364 366 367 365
4 366 368 369 367
4 368 370 371 369
4 370 372 373 371
4 372 374 375 373
4 374 376 377 375
4 376 378 379 377
4 378 380 381 379
4 380 382 383 381
4 382 384 385 383
4 384 386 387 385
4 386 388 389 387
4 388 390 391 389
4 390 392 393 391
4 392 394 395 393
4 394 396 397 395
4 396 398 399 397
4 398 400 401 399
4 400 402 403 401
4 402 404 405 403
4 404 406 407 405
4 406 408 409 407
4 408 410 411 409
4 410 412 413 411
4 412 414 415 413
4 414 416 417 415
4 416 418 419 417
4 418 420 421 419
4 420 422 423 421
4 422 424 425 423
4 424 426 427 425
4 426 428 429 427
4 428 430 431 429
4 430 432 433 431
4 432 434 435 433
4 434 436 437 435
4 436 438 439 437
4 438 440 441 439
4 440 442 443 441
4 442 444 445 443
4 444 446 447 445
4 446 448 449 447
4 448 450 451 449
4 450 452 453 451
4 452 454 455 453
4 454 456 457 455
4 456 458 459 457
4 458 460 461 459
4 460 462 463 461
4 462 464 465 463
4 464 466 467 465
4 466 468 469 467
4 468 470 471 469
4 470 472 473 471
4 472 474 475 473
4 474 476 477 475
4 476 478 479 477
4 478 480 481 479
4 480 482 483 481
4 482 484 485 483
4 484 486 487 485
4 486 488 489 487
4 488 490 491 489
4 490 492 493 491
4 492 494 495 493
4 494 496 497 495
4 496 498 499 497
4 498 500 501 499
POINT_DATA 502
FIELD attributes 1
U 3 502 float
3.25299 0.047633 0.0171636
1.61761 0.0240755 0.00845826
1.61761 0.0240755 0.00845826
3.25299 0.047633 0.0171636
0.0240656 0.000676624 0
0.0240656 0.000676624 0
0.017449 5.48156e-05 0
0.017449 5.48156e-05 0
0.0143859 -6.85906e-05 0
0.0143859 -6.85906e-05 0
0.012989 -5.87375e-05 0
0.012989 -5.87375e-05 0
0.0123481 -4.68731e-05 0
0.0123481 -4.68731e-05 0
0.0120701 -3.85473e-05 0
0.0120701 -3.85473e-05 0
0.0118439 -1.11181e-05 0
0.0118439 -1.11181e-05 0
0.0115914 5.60508e-06 0
0.0115914 5.60508e-06 0
0.0113836 -3.20931e-06 0
0.0113836 -3.20931e-06 0
0.0113729 -2.38518e-05 0
0.0113729 -2.38518e-05 0
0.0114095 -2.70943e-05 0
0.0114095 -2.70943e-05 0
0.0115078 -1.7874e-05 0
0.0115078 -1.7874e-05 0
0.0115478 -1.69626e-05 0
0.0115478 -1.69626e-05 0
0.0116804 -1.46991e-05 0
0.0116804 -1.46991e-05 0
0.0116056 3.94534e-05 0
0.0116056 3.94534e-05 0
0.0120788 -0.000149167 0
0.0120788 -0.000149167 0
0.00581526 0.00120758 0
0.00581526 0.00120758 0
-0.000349862 -0.00592422 0
-0.000349862 -0.00592422 0
-0.00046147 -0.00674747 0
-0.00046147 -0.00674747 0
0.000405279 -0.00723753 0
0.000405279 -0.00723753 0
0.000658181 -0.00802048 -4.61068e-22
0.000658181 -0.00802048 -4.61068e-22
-0.000151068 -0.00755371 5.11417e-23
-0.000151068 -0.00755371 5.11417e-23
-0.00108364 -0.00595424 -4.75807e-23
-0.00108364 -0.00595424 -4.75807e-23
-0.00190542 -0.00348823 5.72958e-23
-0.00190542 -0.00348823 5.72958e-23
-0.002141 -0.000400528 5.7915e-22
-0.002141 -0.000400528 5.7915e-22
-0.00101042 0.00187721 0
-0.00101042 0.00187721 0
-0.000102238 0.000227412 0
-0.000102238 0.000227412 0
-0.000154407 0.000848807 0
-0.000154407 0.000848807 0
-0.000198691 0.0019565 0
-0.000198691 0.0019565 0
-0.000178602 0.00290697 0
-0.000178602 0.00290697 0
-0.00015226 0.00385295 -1.12097e-22
-0.00015226 0.00385295 -1.12097e-22
-0.000113393 0.0046789 -4.94658e-26
-0.000113393 0.0046789 -4.94658e-26
-9.25014e-05 0.00554312 1.12048e-22
-9.25014e-05 0.00554312 1.12048e-22
-2.60478e-05 0.00626285 2.28708e-22
-2.60478e-05 0.00626285 2.28708e-22
-1.47058e-06 0.00680889 1.43299e-25
-1.47058e-06 0.00680889 1.43299e-25
5.65885e-05 0.00738041 -2.28565e-22
5.65885e-05 0.00738041 -2.28565e-22
0.000158903 0.00761849 0
0.000158903 0.00761849 0
0.000169478 0.00758753 0
0.000169478 0.00758753 0
0.000249472 0.00731576 0
0.000249472 0.00731576 0
0.000367671 0.00663233 0
0.000367671 0.00663233 0
0.000461259 0.00547587 0
0.000461259 0.00547587 0
0.000574722 0.00370336 0
0.000574722 0.00370336 0
0.000709956 0.00107608 0
0.000709956 0.00107608 0
0.000487523 -0.00261189 0
0.000487523 -0.00261189 0
-0.000214996 0.00023331 0
-0.000214996 0.00023331 0
-0.00044118 0.000238456 0
-0.00044118 0.000238456 0
-0.000669599 0.000237184 0
-0.000669599 0.000237184 0
-0.000899694 0.000235809 0
-0.000899694 0.000235809 0
-0.00113045 0.000233849 0
-0.00113045 0.000233849 0
-0.00136158 0.000231446 -1.23859e-23
-0.00136158 0.000231446 -1.23859e-23
-0.00159231 0.000228621 -1.02284e-25
-0.00159231 0.000228621 -1.02284e-25
-0.00182247 0.00022546 1.23288e-23
-0.00182247 0.00022546 1.23288e-23
-0.00205122 0.000222 1.21483e-23
-0.00205122 0.000222 1.21483e-23
-0.0022776 0.00021808 1.21712e-23
-0.0022776 0.00021808 1.21712e-23
-0.00250081 0.000213522 0
-0.00250081 0.000213522 0
-0.0027202 0.000208227 0
-0.0027202 0.000208227 0
-0.00293433 0.000202014 -1.18285e-23
-0.00293433 0.000202014 -1.18285e-23
-0.00314159 0.000194606 -1.18519e-23
-0.00314159 0.000194606 -1.18519e-23
-0.00334036 0.000185805 0
-0.00334036 0.000185805 0
-0.00352885 0.000175477 1.15681e-23
-0.00352885 0.000175477 1.15681e-23
-0.00370496 0.00016345 1.15917e-23
-0.00370496 0.00016345 1.15917e-23
-0.00386665 0.000149582 0
-0.00386665 0.000149582 0
-0.00401178 0.000133909 0
-0.00401178 0.000133909 0
-0.00413778 0.000116422 -1.11563e-23
-0.00413778 0.000116422 -1.11563e-23
-0.00424239 9.71796e-05 -1.11801e-23
-0.00424239 9.71796e-05 -1.11801e-23
-0.00432354 7.62273e-05 -1.09091e-23
-0.00432354 7.62273e-05 -1.09091e-23
-0.0043793 5.3834e-05 -1.0933e-23
-0.0043793 5.3834e-05 -1.0933e-23
-0.00440783 3.0418e-05 0
-0.00440783 3.0418e-05 0
-0.00440731 6.28231e-06 -1.04751e-23
-0.00440731 6.28231e-06 -1.04751e-23
-0.00437623 -1.81978e-05 -1.04988e-23
-0.00437623 -1.81978e-05 -1.04988e-23
-0.00431407 -4.27269e-05 1.01425e-23
-0.00431407 -4.27269e-05 1.01425e-23
-0.00422081 -6.6851e-05 1.0166e-23
-0.00422081 -6.6851e-05 1.0166e-23
-0.00409678 -9.0191e-05 -9.78033e-24
-0.00409678 -9.0191e-05 -9.78033e-24
-0.00394292 -0.000112354 -9.80341e-24
-0.00394292 -0.000112354 -9.80341e-24
-0.00376046 -0.000132907 0
-0.00376046 -0.000132907 0
-0.00355106 -0.000151535 0
-0.00355106 -0.000151535 0
-0.00331682 -0.000167947 0
-0.00331682 -0.000167947 0
-0.00306009 -0.000181918 0
-0.00306009 -0.000181918 0
-0.00278352 -0.000193272 8.6105e-24
-0.00278352 -0.000193272 8.6105e-24
-0.00248998 -0.000201923 8.63216e-24
-0.00248998 -0.000201923 8.63216e-24
-0.00218259 -0.000207837 -1.64596e-23
-0.00218259 -0.000207837 -1.64596e-23
-0.0018642 -0.000210986 -1.65019e-23
-0.0018642 -0.000210986 -1.65019e-23
-0.00153786 -0.000211676 1.57393e-23
-0.00153786 -0.000211676 1.57393e-23
-0.00120737 -0.000210006 1.57806e-23
-0.00120737 -0.000210006 1.57806e-23
-0.00087536 -0.000205871 0
-0.00087536 -0.000205871 0
-0.00054388 -0.000199698 -1.47596e-23
-0.00054388 -0.000199698 -1.47596e-23
-0.000216225 -0.00019207 -1.47995e-23
-0.000216225 -0.00019207 -1.47995e-23
0.000105055 -0.000182999 -1.41805e-23
0.000105055 -0.000182999 -1.41805e-23
0.00041888 -0.000172556 -3.06788e-25
0.00041888 -0.000172556 -3.06788e-25
0.000723708 -0.000161199 1.39515e-23
0.000723708 -0.000161199 1.39515e-23
0.00101779 -0.000149174 1.3419e-23
0.00101779 -0.000149174 1.3419e-23
0.00129991 -0.000136711 2.66488e-23
0.00129991 -0.000136711 2.66488e-23
0.00156912 -0.000124024 1.32295e-23
0.00156912 -0.000124024 1.32295e-23
0.00182473 -0.00011131 0
0.00182473 -0.00011131 0
0.00206627 -9.87337e-05 0
0.00206627 -9.87337e-05 0
0.00229341 -8.64313e-05 0
0.00229341 -8.64313e-05 0
0.00250601 -7.45215e-05 0
0.00250601 -7.45215e-05 0
0.00270407 -6.31145e-05 -1.20538e-23
0.00270407 -6.31145e-05 -1.20538e-23
0.00288775 -5.23017e-05 -1.20904e-23
0.00288775 -5.23017e-05 -1.20904e-23
0.0030573 -4.21425e-05 1.17424e-23
0.0030573 -4.21425e-05 1.17424e-23
0.00321308 -3.26708e-05 1.17788e-23
0.00321308 -3.26708e-05 1.17788e-23
0.00335549 -2.3916e-05 0
0.00335549 -2.3916e-05 0
0.00348503 -1.59075e-05 -1.13206e-23
0.00348503 -1.59075e-05 -1.13206e-23
0.00360228 -8.65643e-06 -1.13567e-23
0.00360228 -8.65643e-06 -1.13567e-23
0.00370784 -2.1466e-06 1.10633e-23
0.00370784 -2.1466e-06 1.10633e-23
0.00380232 3.6491e-06 1.10992e-23
0.00380232 3.6491e-06 1.10992e-23
0.00388636 8.74998e-06 0
0.00388636 8.74998e-06 0
0.00396064 1.31767e-05 0
0.00396064 1.31767e-05 0
0.00402582 1.69702e-05 -1.05905e-23
0.00402582 1.69702e-05 -1.05905e-23
0.00408256 2.01789e-05 -1.0626e-23
0.00408256 2.01789e-05 -1.0626e-23
0.00413151 2.28517e-05 0
0.00413151 2.28517e-05 0
0.00417328 2.50241e-05 -1.02621e-23
0.00417328 2.50241e-05 -1.02621e-23
0.00420851 2.67367e-05 -1.02975e-23
0.00420851 2.67367e-05 -1.02975e-23
0.00423777 2.80546e-05 -1.0052e-23
0.00423777 2.80546e-05 -1.0052e-23
0.0042616 2.90009e-05 -1.00873e-23
0.0042616 2.90009e-05 -1.00873e-23
0.00428053 2.96201e-05 0
0.00428053 2.96201e-05 0
0.00429505 3.00054e-05 0
0.00429505 3.00054e-05 0
0.00430565 3.01246e-05 9.64688e-24
0.00430565 3.01246e-05 9.64688e-24
0.00431282 2.98714e-05 9.68188e-24
0.00431282 2.98714e-05 9.68188e-24
0.00431686 2.93483e-05 0
0.00431686 2.93483e-05 0
0.00431813 2.874e-05 9.35254e-24
0.00431813 2.874e-05 9.35254e-24
0.004317 2.80971e-05 1.86431e-23
0.004317 2.80971e-05 1.86431e-23
0.00431375 2.74249e-05 9.29045e-24
0.00431375 2.74249e-05 9.29045e-24
0.00430862 2.67289e-05 9.06385e-24
0.00430862 2.67289e-05 9.06385e-24
0.00430186 2.60129e-05 9.09837e-24
0.00430186 2.60129e-05 9.09837e-24
0.00429367 2.52743e-05 1.77479e-23
0.00429367 2.52743e-05 1.77479e-23
0.00428423 2.45258e-05 1.78165e-23
0.00428423 2.45258e-05 1.78165e-23
0.0042737 2.37736e-05 1.73715e-23
0.0042737 2.37736e-05 1.73715e-23
0.00426223 2.29984e-05 1.74398e-23
0.00426223 2.29984e-05 1.74398e-23
0.00424992 2.2241e-05 -1.69983e-23
0.00424992 2.2241e-05 -1.69983e-23
0.00423687 2.15522e-05 -1.70661e-23
0.00423687 2.15522e-05 -1.70661e-23
0.00422317 2.09052e-05 0
0.00422317 2.09052e-05 0
0.00420892 2.02683e-05 0
0.00420892 2.02683e-05 0
0.00419424 1.96345e-05 1.62608e-23
0.00419424 1.96345e-05 1.62608e-23
0.00417921 1.90055e-05 1.63276e-23
0.00417921 1.90055e-05 1.63276e-23
0.00416388 1.83925e-05 -1.58962e-23
0.00416388 1.83925e-05 -1.58962e-23
0.00414832 1.78026e-05 -1.59625e-23
0.00414832 1.78026e-05 -1.59625e-23
0.00413255 1.72315e-05 1.55344e-23
0.00413255 1.72315e-05 1.55344e-23
0.00411663 1.66758e-05 3.09547e-23
0.00411663 1.66758e-05 3.09547e-23
0.0041006 1.61358e-05 3.05954e-23
0.0041006 1.61358e-05 3.05954e-23
0.00408449 1.5611e-05 1.52405e-23
0.00408449 1.5611e-05 1.52405e-23
0.00406833 1.51022e-05 0
0.00406833 1.51022e-05 0
0.00405212 1.46129e-05 0
0.00405212 1.46129e-05 0
0.0040359 1.41443e-05 0
0.0040359 1.41443e-05 0
0.00401969 1.36949e-05 0
0.00401969 1.36949e-05 0
0.00400351 1.32647e-05 0
0.00400351 1.32647e-05 0
0.00398737 1.28542e-05 0
0.00398737 1.28542e-05 0
0.00397128 1.24614e-05 0
0.00397128 1.24614e-05 0
0.00395525 1.20827e-05 -1.35954e-23
0.00395525 1.20827e-05 -1.35954e-23
0.00393928 1.17168e-05 -2.70809e-23
0.00393928 1.17168e-05 -2.70809e-23
0.0039234 1.13656e-05 -1.34851e-23
0.0039234 1.13656e-05 -1.34851e-23
0.00390761 1.10309e-05 0
0.00390761 1.10309e-05 0
0.00389189 1.07111e-05 0
0.00389189 1.07111e-05 0
0.00387626 1.0402e-05 -1.27436e-23
0.00387626 1.0402e-05 -1.27436e-23
0.00386073 1.01011e-05 -1.28035e-23
0.00386073 1.01011e-05 -1.28035e-23
0.00384529 9.80917e-06 0
0.00384529 9.80917e-06 0
0.00382996 9.52956e-06 0
0.00382996 9.52956e-06 0
0.00381473 9.26344e-06 0
0.00381473 9.26344e-06 0
0.0037996 9.00828e-06 1.19107e-23
0.0037996 9.00828e-06 1.19107e-23
0.00378457 8.76008e-06 1.19684e-23
0.00378457 8.76008e-06 1.19684e-23
0.00376964 8.51669e-06 0
0.00376964 8.51669e-06 0
0.00375482 8.27899e-06 -1.142e-23
0.00375482 8.27899e-06 -1.142e-23
0.00374011 8.04923e-06 -2.18312e-25
0.00374011 8.04923e-06 -2.18312e-25
0.00372552 7.82865e-06 1.13138e-23
0.00372552 7.82865e-06 1.13138e-23
0.00371103 7.61642e-06 1.09361e-23
0.00371103 7.61642e-06 1.09361e-23
0.00369665 7.41056e-06 1.09909e-23
0.00369665 7.41056e-06 1.09909e-23
0.00368237 7.20949e-06 -1.06172e-23
0.00368237 7.20949e-06 -1.06172e-23
0.0036682 7.01251e-06 -1.0671e-23
0.0036682 7.01251e-06 -1.0671e-23
0.00365415 6.8196e-06 0
0.00365415 6.8196e-06 0
0.0036402 6.63131e-06 0
0.0036402 6.63131e-06 0
0.00362637 6.44869e-06 0
0.00362637 6.44869e-06 0
0.00361265 6.27259e-06 0
0.00361265 6.27259e-06 0
0.00359904 6.10278e-06 1.93553e-23
0.00359904 6.10278e-06 1.93553e-23
0.00358553 5.93765e-06 3.85034e-23
0.00358553 5.93765e-06 3.85034e-23
0.00357213 5.77494e-06 1.9147e-23
0.00357213 5.77494e-06 1.9147e-23
0.00355883 5.6134e-06 0
0.00355883 5.6134e-06 0
0.00354564 5.45377e-06 0
0.00354564 5.45377e-06 0
0.00353256 5.29827e-06 -1.78273e-23
0.00353256 5.29827e-06 -1.78273e-23
0.00351959 5.14874e-06 -1.79228e-23
0.00351959 5.14874e-06 -1.79228e-23
0.00350673 5.00507e-06 0
0.00350673 5.00507e-06 0
0.00349397 4.8651e-06 0
0.00349397 4.8651e-06 0
0.00348131 4.72619e-06 -1.66283e-23
0.00348131 4.72619e-06 -1.66283e-23
0.00346875 4.58721e-06 -3.87441e-25
0.00346875 4.58721e-06 -3.87441e-25
0.0034563 4.44951e-06 1.64212e-23
0.0034563 4.44951e-06 1.64212e-23
0.00344396 4.31585e-06 0
0.00344396 4.31585e-06 0
0.00343173 4.18798e-06 1.54487e-23
0.00343173 4.18798e-06 1.54487e-23
0.0034196 4.06512e-06 3.06913e-23
0.0034196 4.06512e-06 3.06913e-23
0.00340757 3.94483e-06 1.52413e-23
0.00340757 3.94483e-06 1.52413e-23
0.00339564 3.82517e-06 0
0.00339564 3.82517e-06 0
0.00338381 3.70594e-06 -1.42872e-23
0.00338381 3.70594e-06 -1.42872e-23
0.00337208 3.58857e-06 -3.68532e-25
0.00337208 3.58857e-06 -3.68532e-25
0.00336046 3.47515e-06 1.40789e-23
0.00336046 3.47515e-06 1.40789e-23
0.00334893 3.36696e-06 0
0.00334893 3.36696e-06 0
0.00333749 3.26366e-06 1.31422e-23
0.00333749 3.26366e-06 1.31422e-23
0.00332614 3.16359e-06 1.32178e-23
0.00332614 3.16359e-06 1.32178e-23
0.00331487 3.0655e-06 0
0.00331487 3.0655e-06 0
0.00330367 2.96956e-06 1.22933e-23
0.00330367 2.96956e-06 1.22933e-23
0.00329255 2.87688e-06 1.23648e-23
0.00329255 2.87688e-06 1.23648e-23
0.00328149 2.78859e-06 1.17316e-23
0.00328149 2.78859e-06 1.17316e-23
0.00327048 2.70655e-06 1.18004e-23
0.00327048 2.70655e-06 1.18004e-23
0.0032595 2.63036e-06 0
0.0032595 2.63036e-06 0
0.00324853 2.56381e-06 0
0.00324853 2.56381e-06 0
0.00323756 2.50082e-06 -1.06171e-23
0.00323756 2.50082e-06 -1.06171e-23
0.0032265 2.45703e-06 -1.06803e-23
0.0032265 2.45703e-06 -1.06803e-23
0.00321543 2.40225e-06 0
0.00321543 2.40225e-06 0
0.00320405 2.40528e-06 0
0.00320405 2.40528e-06 0
0.00319277 2.33499e-06 0
0.00319277 2.33499e-06 0
0.00318059 2.45924e-06 0
0.00318059 2.45924e-06 0
0.00316906 2.29987e-06 0
0.00316906 2.29987e-06 0
0.00315513 2.6818e-06 -8.68717e-24
0.00315513 2.6818e-06 -8.68717e-24
0.0031434 2.34043e-06 -1.71503e-23
0.0031434 2.34043e-06 -1.71503e-23
0.00312617 3.05457e-06 -8.46157e-24
0.00312617 3.05457e-06 -8.46157e-24
0.00311382 2.68369e-06 0