# vtk DataFile Version 2.0
sampleSurface
ASCII
DATASET POLYDATA
POINTS 502 float
-0.0206 0 -0.0005
-0.0190172 0 -0.0005
-0.0190172 0 0.0005
-0.0206 0 0.0005
-0.0174976 0 -0.0005
-0.0174976 0 0.0005
-0.0160387 0 -0.0005
-0.0160387 0 0.0005
-0.0146381 0 -0.0005
-0.0146381 0 0.0005
-0.0132934 0 -0.0005
-0.0132934 0 0.0005
-0.0120025 0 -0.0005
-0.0120025 0 0.0005
-0.0107632 0 -0.0005
-0.0107632 0 0.0005
-0.00957337 0 -0.0005
-0.00957337 0 0.0005
-0.00843108 0 -0.0005
-0.00843108 0 0.0005
-0.00733443 0 -0.0005
-0.00733443 0 0.0005
-0.0062816 0 -0.0005
-0.0062816 0 0.0005
-0.00527083 0 -0.0005
-0.00527083 0 0.0005
-0.00430044 0 -0.0005
-0.00430044 0 0.0005
-0.00336883 0 -0.0005
-0.00336883 0 0.0005
-0.00247443 0 -0.0005
-0.00247443 0 0.0005
-0.00161577 0 -0.0005
-0.00161577 0 0.0005
-0.000791418 0 -0.0005
-0.000791418 0 0.0005
0 0 -0.0005
0 0 0.0005
0 -0.005 -0.0005
0 -0.005 0.0005
0 -0.00423364 0.0005
0 -0.00423364 -0.0005
0 -0.00353089 0.0005
0 -0.00353089 -0.0005
0 -0.00288647 0.0005
0 -0.00288647 -0.0005
0 -0.00229553 0.0005
0 -0.00229553 -0.0005
0 -0.00175363 0.0005
0 -0.00175363 -0.0005
0 -0.00125671 0.0005
0 -0.00125671 -0.0005
0 -0.000801036 0.0005
0 -0.000801036 -0.0005
0 -0.000383178 0.0005
0 -0.000383178 -0.0005
0 -0.0254 -0.0005
0 -0.0254 0.0005
0 -0.0242667 0.0005
0 -0.0242667 -0.0005
0 -0.0231333 0.0005
0 -0.0231333 -0.0005
0 -0.022 0.0005
0 -0.022 -0.0005
0 -0.0208667 0.0005
0 -0.0208667 -0.0005
0 -0.0197333 0.0005
0 -0.0197333 -0.0005
0 -0.0186 0.0005
0 -0.0186 -0.0005
0 -0.0174667 0.0005
0 -0.0174667 -0.0005
0 -0.0163333 0.0005
0 -0.0163333 -0.0005
0 -0.0152 0.0005
0 -0.0152 -0.0005
0 -0.0140667 0.0005
0 -0.0140667 -0.0005
0 -0.0129333 0.0005
0 -0.0129333 -0.0005
0 -0.0118 0.0005
0 -0.0118 -0.0005
0 -0.0106667 0.0005
0 -0.0106667 -0.0005
0 -0.00953333 0.0005
0 -0.00953333 -0.0005
0 -0.0084 0.0005
0 -0.0084 -0.0005
0 -0.00726667 0.0005
0 -0.00726667 -0.0005
0 -0.00613333 0.0005
0 -0.00613333 -0.0005
0.000528387 -0.0254 -0.0005
0.000528387 -0.0254 0.0005
0.00106088 -0.0254 -0.0005
0.00106088 -0.0254 0.0005
0.00159752 -0.0254 -0.0005
0.00159752 -0.0254 0.0005
0.00213833 -0.0254 -0.0005
0.00213833 -0.0254 0.0005
0.00268334 -0.0254 -0.0005
0.00268334 -0.0254 0.0005
0.00323259 -0.0254 -0.0005
0.00323259 -0.0254 0.0005
0.00378611 -0.0254 -0.0005
0.00378611 -0.0254 0.0005
0.00434393 -0.0254 -0.0005
0.00434393 -0.0254 0.0005
0.00490609 -0.0254 -0.0005
0.00490609 -0.0254 0.0005
0.00547262 -0.0254 -0.0005
0.00547262 -0.0254 0.0005
0.00604356 -0.0254 -0.0005
0.00604356 -0.0254 0.0005
0.00661893 -0.0254 -0.0005
0.00661893 -0.0254 0.0005
0.00719878 -0.0254 -0.0005
0.00719878 -0.0254 0.0005
0.00778313 -0.0254 -0.0005
0.00778313 -0.0254 0.0005
0.00837203 -0.0254 -0.0005
0.00837203 -0.0254 0.0005
0.00896551 -0.0254 -0.0005
0.00896551 -0.0254 0.0005
0.0095636 -0.0254 -0.0005
0.0095636 -0.0254 0.0005
0.0101663 -0.0254 -0.0005
0.0101663 -0.0254 0.0005
0.0107738 -0.0254 -0.0005
0.0107738 -0.0254 0.0005
0.0113859 -0.0254 -0.0005
0.0113859 -0.0254 0.0005
0.0120028 -0.0254 -0.0005
0.0120028 -0.0254 0.0005
0.0126245 -0.0254 -0.0005
0.0126245 -0.0254 0.0005
0.0132511 -0.0254 -0.0005
0.0132511 -0.0254 0.0005
0.0138825 -0.0254 -0.0005
0.0138825 -0.0254 0.0005
0.0145188 -0.0254 -0.0005
0.0145188 -0.0254 0.0005
0.0151601 -0.0254 -0.0005
0.0151601 -0.0254 0.0005
0.0158063 -0.0254 -0.0005
0.0158063 -0.0254 0.0005
0.0164576 -0.0254 -0.0005
0.0164576 -0.0254 0.0005
0.0171139 -0.0254 -0.0005
0.0171139 -0.0254 0.0005
0.0177754 -0.0254 -0.0005
0.0177754 -0.0254 0.0005
0.018442 -0.0254 -0.0005
0.018442 -0.0254 0.0005
0.0191137 -0.0254 -0.0005
0.0191137 -0.0254 0.0005
0.0197907 -0.0254 -0.0005
0.0197907 -0.0254 0.0005
0.020473 -0.0254 -0.0005
0.020473 -0.0254 0.0005
0.0211606 -0.0254 -0.0005
0.0211606 -0.0254 0.0005
0.0218535 -0.0254 -0.0005
0.0218535 -0.0254 0.0005
0.0225517 -0.0254 -0.0005
0.0225517 -0.0254 0.0005
0.0232555 -0.0254 -0.0005
0.0232555 -0.0254 0.0005
0.0239647 -0.0254 -0.0005
0.0239647 -0.0254 0.0005
0.0246794 -0.0254 -0.0005
0.0246794 -0.0254 0.0005
0.0253996 -0.0254 -0.0005
0.0253996 -0.0254 0.0005
0.0261255 -0.0254 -0.0005
0.0261255 -0.0254 0.0005
0.026857 -0.0254 -0.0005
0.026857 -0.0254 0.0005
0.0275942 -0.0254 -0.0005
0.0275942 -0.0254 0.0005
0.0283371 -0.0254 -0.0005
0.0283371 -0.0254 0.0005
0.0290858 -0.0254 -0.0005
0.0290858 -0.0254 0.0005
0.0298403 -0.0254 -0.0005
0.0298403 -0.0254 0.0005
0.0306007 -0.0254 -0.0005
0.0306007 -0.0254 0.0005
0.031367 -0.0254 -0.0005
0.031367 -0.0254 0.0005
0.0321393 -0.0254 -0.0005
0.0321393 -0.0254 0.0005
0.0329175 -0.0254 -0.0005
0.0329175 -0.0254 0.0005
0.0337019 -0.0254 -0.0005
0.0337019 -0.0254 0.0005
0.0344923 -0.0254 -0.0005
0.0344923 -0.0254 0.0005
0.0352888 -0.0254 -0.0005
0.0352888 -0.0254 0.0005
0.0360916 -0.0254 -0.0005
0.0360916 -0.0254 0.0005
0.0369006 -0.0254 -0.0005
0.0369006 -0.0254 0.0005
0.0377158 -0.0254 -0.0005
0.0377158 -0.0254 0.0005
0.0385375 -0.0254 -0.0005
0.0385375 -0.0254 0.0005
0.0393655 -0.0254 -0.0005
0.0393655 -0.0254 0.0005
0.0401999 -0.0254 -0.0005
0.0401999 -0.0254 0.0005
0.0410408 -0.0254 -0.0005
0.0410408 -0.0254 0.0005
0.0418883 -0.0254 -0.0005
0.0418883 -0.0254 0.0005
0.0427424 -0.0254 -0.0005
0.0427424 -0.0254 0.0005
0.0436031 -0.0254 -0.0005
0.0436031 -0.0254 0.0005
0.0444704 -0.0254 -0.0005
0.0444704 -0.0254 0.0005
0.0453446 -0.0254 -0.0005
0.0453446 -0.0254 0.0005
0.0462255 -0.0254 -0.0005
0.0462255 -0.0254 0.0005
0.0471133 -0.0254 -0.0005
0.0471133 -0.0254 0.0005
0.048008 -0.0254 -0.0005
0.048008 -0.0254 0.0005
0.0489096 -0.0254 -0.0005
0.0489096 -0.0254 0.0005
0.0498183 -0.0254 -0.0005
0.0498183 -0.0254 0.0005
0.050734 -0.0254 -0.0005
0.050734 -0.0254 0.0005
0.0516568 -0.0254 -0.0005
0.0516568 -0.0254 0.0005
0.0525868 -0.0254 -0.0005
0.0525868 -0.0254 0.0005
0.053524 -0.0254 -0.0005
0.053524 -0.0254 0.0005
0.0544686 -0.0254 -0.0005
0.0544686 -0.0254 0.0005
0.0554204 -0.0254 -0.0005
0.0554204 -0.0254 0.0005
0.0563797 -0.0254 -0.0005
0.0563797 -0.0254 0.0005
0.0573464 -0.0254 -0.0005
0.0573464 -0.0254 0.0005
0.0583206 -0.0254 -0.0005
0.0583206 -0.0254 0.0005
0.0593025 -0.0254 -0.0005
0.0593025 -0.0254 0.0005
0.0602919 -0.0254 -0.0005
0.0602919 -0.0254 0.0005
0.0612891 -0.0254 -0.0005
0.0612891 -0.0254 0.0005
0.0622939 -0.0254 -0.0005
0.0622939 -0.0254 0.0005
0.0633067 -0.0254 -0.0005
0.0633067 -0.0254 0.0005
0.0643272 -0.0254 -0.0005
0.0643272 -0.0254 0.0005
0.0653557 -0.0254 -0.0005
0.0653557 -0.0254 0.0005
0.0663923 -0.0254 -0.0005
0.0663923 -0.0254 0.0005
0.0674368 -0.0254 -0.0005
0.0674368 -0.0254 0.0005
0.0684895 -0.0254 -0.0005
0.0684895 -0.0254 0.0005
0.0695504 -0.0254 -0.0005
0.0695504 -0.0254 0.0005
0.0706195 -0.0254 -0.0005
0.0706195 -0.0254 0.0005
0.0716969 -0.0254 -0.0005
0.0716969 -0.0254 0.0005
0.0727828 -0.0254 -0.0005
0.0727828 -0.0254 0.0005
0.073877 -0.0254 -0.0005
0.073877 -0.0254 0.0005
0.0749798 -0.0254 -0.0005
0.0749798 -0.0254 0.0005
0.0760911 -0.0254 -0.0005
0.0760911 -0.0254 0.0005
0.0772111 -0.0254 -0.0005
0.0772111 -0.0254 0.0005
0.0783398 -0.0254 -0.0005
0.0783398 -0.0254 0.0005
0.0794772 -0.0254 -0.0005
0.0794772 -0.0254 0.0005
0.0806235 -0.0254 -0.0005
0.0806235 -0.0254 0.0005
0.0817787 -0.0254 -0.0005
0.0817787 -0.0254 0.0005
0.0829429 -0.0254 -0.0005
0.0829429 -0.0254 0.0005
0.0841162 -0.0254 -0.0005
0.0841162 -0.0254 0.0005
0.0852985 -0.0254 -0.0005
0.0852985 -0.0254 0.0005
0.0864901 -0.0254 -0.0005
0.0864901 -0.0254 0.0005
0.0876909 -0.0254 -0.0005
0.0876909 -0.0254 0.0005
0.0889011 -0.0254 -0.0005
0.0889011 -0.0254 0.0005
0.0901207 -0.0254 -0.0005
0.0901207 -0.0254 0.0005
0.0913497 -0.0254 -0.0005
0.0913497 -0.0254 0.0005
0.0925883 -0.0254 -0.0005
0.0925883 -0.0254 0.0005
0.0938366 -0.0254 -0.0005
0.0938366 -0.0254 0.0005
0.0950945 -0.0254 -0.0005
0.0950945 -0.0254 0.0005
0.0963622 -0.0254 -0.0005
0.0963622 -0.0254 0.0005
0.0976398 -0.0254 -0.0005
0.0976398 -0.0254 0.0005
0.0989273 -0.0254 -0.0005
0.0989273 -0.0254 0.0005
0.100225 -0.0254 -0.0005
0.100225 -0.0254 0.0005
0.101532 -0.0254 -0.0005
0.101532 -0.0254 0.0005
0.10285 -0.0254 -0.0005
0.10285 -0.0254 0.0005
0.104178 -0.0254 -0.0005
0.104178 -0.0254 0.0005
0.105517 -0.0254 -0.0005
0.105517 -0.0254 0.0005
0.106865 -0.0254 -0.0005
0.106865 -0.0254 0.0005
0.108225 -0.0254 -0.0005
0.108225 -0.0254 0.0005
0.109594 -0.0254 -0.0005
0.109594 -0.0254 0.0005
0.110975 -0.0254 -0.0005
0.110975 -0.0254 0.0005
0.112366 -0.0254 -0.0005
0.112366 -0.0254 0.0005
0.113768 -0.0254 -0.0005
0.113768 -0.0254 0.0005
0.115181 -0.0254 -0.0005
0.115181 -0.0254 0.0005
0.116605 -0.0254 -0.0005
0.116605 -0.0254 0.0005
0.11804 -0.0254 -0.0005
0.11804 -0.0254 0.0005
0.119486 -0.0254 -0.0005
0.119486 -0.0254 0.0005
0.120943 -0.0254 -0.0005
0.120943 -0.0254 0.0005
0.122412 -0.0254 -0.0005
0.122412 -0.0254 0.0005
0.123892 -0.0254 -0.0005
0.123892 -0.0254 0.0005
0.125384 -0.0254 -0.0005
0.125384 -0.0254 0.0005
0.126887 -0.0254 -0.0005
0.126887 -0.0254 0.0005
0.128402 -0.0254 -0.0005
0.128402 -0.0254 0.0005
0.129928 -0.0254 -0.0005
0.129928 -0.0254 0.0005
0.131467 -0.0254 -0.0005
0.131467 -0.0254 0.0005
0.133017 -0.0254 -0.0005
0.133017 -0.0254 0.0005
0.13458 -0.0254 -0.0005
0.13458 -0.0254 0.0005
0.136155 -0.0254 -0.0005
0.136155 -0.0254 0.0005
0.137742 -0.0254 -0.0005
0.137742 -0.0254 0.0005
0.139341 -0.0254 -0.0005
0.139341 -0.0254 0.0005
0.140953 -0.0254 -0.0005
0.140953 -0.0254 0.0005
0.142577 -0.0254 -0.0005
0.142577 -0.0254 0.0005
0.144214 -0.0254 -0.0005
0.144214 -0.0254 0.0005
0.145863 -0.0254 -0.0005
0.145863 -0.0254 0.0005
0.147526 -0.0254 -0.0005
0.147526 -0.0254 0.0005
0.149201 -0.0254 -0.0005
0.149201 -0.0254 0.0005
0.15089 -0.0254 -0.0005
0.15089 -0.0254 0.0005
0.152591 -0.0254 -0.0005
0.152591 -0.0254 0.0005
0.154306 -0.0254 -0.0005
0.154306 -0.0254 0.0005
0.156034 -0.0254 -0.0005
0.156034 -0.0254 0.0005
0.157775 -0.0254 -0.0005
0.157775 -0.0254 0.0005
0.159531 -0.0254 -0.0005
0.159531 -0.0254 0.0005
0.161299 -0.0254 -0.0005
0.161299 -0.0254 0.0005
0.163082 -0.0254 -0.0005
0.163082 -0.0254 0.0005
0.164878 -0.0254 -0.0005
0.164878 -0.0254 0.0005
0.166688 -0.0254 -0.0005
0.166688 -0.0254 0.0005
0.168513 -0.0254 -0.0005
0.168513 -0.0254 0.0005
0.170351 -0.0254 -0.0005
0.170351 -0.0254 0.0005
0.172204 -0.0254 -0.0005
0.172204 -0.0254 0.0005
0.174071 -0.0254 -0.0005
0.174071 -0.0254 0.0005
0.175953 -0.0254 -0.0005
0.175953 -0.0254 0.0005
0.177849 -0.0254 -0.0005
0.177849 -0.0254 0.0005
0.17976 -0.0254 -0.0005
0.17976 -0.0254 0.0005
0.181686 -0.0254 -0.0005
0.181686 -0.0254 0.0005
0.183627 -0.0254 -0.0005
0.183627 -0.0254 0.0005
0.185583 -0.0254 -0.0005
0.185583 -0.0254 0.0005
0.187555 -0.0254 -0.0005
0.187555 -0.0254 0.0005
0.189541 -0.0254 -0.0005
0.189541 -0.0254 0.0005
0.191543 -0.0254 -0.0005
0.191543 -0.0254 0.0005
0.193561 -0.0254 -0.0005
0.193561 -0.0254 0.0005
0.195594 -0.0254 -0.0005
0.195594 -0.0254 0.0005
0.197643 -0.0254 -0.0005
0.197643 -0.0254 0.0005
0.199708 -0.0254 -0.0005
0.199708 -0.0254 0.0005
0.201789 -0.0254 -0.0005
0.201789 -0.0254 0.0005
0.203886 -0.0254 -0.0005
0.203886 -0.0254 0.0005
0.206 -0.0254 -0.0005
0.206 -0.0254 0.0005
0.208047 -0.0251856 -0.0005
0.208047 -0.0251856 0.0005
0.210173 -0.0249628 -0.0005
0.210173 -0.0249628 0.0005
0.212382 -0.0247314 -0.0005
0.212382 -0.0247314 0.0005
0.214677 -0.024491 -0.0005
0.214677 -0.024491 0.0005
0.217061 -0.0242412 -0.0005
0.217061 -0.0242412 0.0005
0.219538 -0.0239817 -0.0005
0.219538 -0.0239817 0.0005
0.222112 -0.0237121 -0.0005
0.222112 -0.0237121 0.0005
0.224785 -0.023432 -0.0005
0.224785 -0.023432 0.0005
0.227563 -0.023141 -0.0005
0.227563 -0.023141 0.0005
0.230449 -0.0228387 -0.0005
0.230449 -0.0228387 0.0005
0.233447 -0.0225246 -0.0005
0.233447 -0.0225246 0.0005
0.236562 -0.0221983 -0.0005
0.236562 -0.0221983 0.0005
0.239797 -0.0218593 -0.0005
0.239797 -0.0218593 0.0005
0.243159 -0.0215071 -0.0005
0.243159 -0.0215071 0.0005
0.246652 -0.0211412 -0.0005
0.246652 -0.0211412 0.0005
0.250281 -0.0207611 -0.0005
0.250281 -0.0207611 0.0005
0.254051 -0.0203661 -0.0005
0.254051 -0.0203661 0.0005
0.257967 -0.0199558 -0.0005
0.257967 -0.0199558 0.0005
0.262036 -0.0195295 -0.0005
0.262036 -0.0195295 0.0005
0.266264 -0.0190867 -0.0005
0.266264 -0.0190867 0.0005
0.270655 -0.0186266 -0.0005
0.270655 -0.0186266 0.0005
0.275218 -0.0181486 -0.0005
0.275218 -0.0181486 0.0005
0.279959 -0.017652 -0.0005
0.279959 -0.017652 0.0005
0.284883 -0.017136 -0.0005
0.284883 -0.017136 0.0005
0.29 -0.0166 -0.0005
0.29 -0.0166 0.0005

POLYGONS 250 1250
4 0 1 2 3
4 1 4 5 2
4 4 6 7 5
4 6 8 9 7
4 8 10 11 9
4 10 12 13 11
4 12 14 15 13
4 14 16 17 15
4 16 18 19 17
4 18 20 21 19
4 20 22 23 21
4 22 24 25 23
4 24 26 27 25
4 26 28 29 27
4 28 30 31 29
4 30 32 33 31
4 32 34 35 33
4 34 36 37 35
4 38 39 40 41
4 41 40 42 43
4 43 42 44 45
4 45 44 46 47
4 47 46 48 49
4 49 48 50 51
4 51 50 52 53
4 53 52 54 55
4 55 54 37 36
4 56 57 58 59
4 59 58 60 61
4 61 60 62 63
4 63 62 64 65
4 65 64 66 67
4 67 66 68 69
4 69 68 70 71
4 71 70 72 73
4 73 72 74 75
4 75 74 76 77
4 77 76 78 79
4 79 78 80 81
4 81 80 82 83
4 83 82 84 85
4 85 84 86 87
4 87 86 88 89
4 89 88 90 91
4 91 90 39 38
4 56 92 93 57
4 92 94 95 93
4 94 96 97 95
4 96 98 99 97
4 98 100 101 99
4 100 102 103 101
4 102 104 105 103
4 104 106 107 105
4 106 108 109 107
4 108 110 111 109
4 110 112 113 111
4 112 114 115 113
4 114 116 117 115
4 116 118 119 117
4 118 120 121 119
4 120 122 123 121
4 122 124 125 123
4 124 126 127 125
4 126 128 129 127
4 128 130 131 129
4 130 132 133 131
4 132 134 135 133
4 134 136 137 135
4 136 138 139 137
4 138 140 141 139
4 140 142 143 141
4 142 144 145 143
4 144 146 147 145
4 146 148 149 147
4 148 150 151 149
4 150 152 153 151
4 152 154 155 153
4 154 156 157 155
4 156 158 159 157
4 158 160 161 159
4 160 162 163 161
4 162 164 165 163
4 164 166 167 165
4 166 168 169 167
4 168 170 171 169
4 170 172 173 171
4 172 174 175 173
4 174 176 177 175
4 176 178 179 177
4 178 180 181 179
4 180 182 183 181
4 182 184 185 183
4 184 186 187 185
4 186 188 189 187
4 188 190 191 189
4 190 192 193 191
4 192 194 195 193
4 194 196 197 195
4 196 198 199 197
4 198 200 201 199
4 200 202 203 201
4 202 204 205 203
4 204 206 207 205
4 206 208 209 207
4 208 210 211 209
4 210 212 213 211
4 212 214 215 213
4 214 216 217 215
4 216 218 219 217
4 218 220 221 219
4 220 222 223 221
4 222 224 225 223
4 224 226 227 225
4 226 228 229 227
4 228 230 231 229
4 230 232 233 231
4 232 234 235 233
4 234 236 237 235
4 236 238 239 237
4 238 240 241 239
4 240 242 243 241
4 242 244 245 243
4 244 246 247 245
4 246 248 249 247
4 248 250 251 249
4 250 252 253 251
4 252 254 255 253
4 254 256 257 255
4 256 258 259 257
4 258 260 261 259
4 260 262 263 261
4 262 264 265 263
4 264 266 267 265
4 266 268 269 267
4 268 270 271 269
4 270 272 273 271
4 272 274 275 273
4 274 276 277 275
4 276 278 279 277
4 278 280 281 279
4 280 282 283 281
4 282 284 285 283
4 284 286 287 285
4 286 288 289 287
4 288 290 291 289
4 290 292 293 291
4 292 294 295 293
4 294 296 297 295
4 296 298 299 297
4 298 300 301 299
4 300 302 303 301
4 302 304 305 303
4 304 306 307 305
4 306 308 309 307
4 308 310 311 309
4 310 312 313 311
4 312 314 315 313
4 314 316 317 315
4 316 318 319 317
4 318 320 321 319
4 320 322 323 321
4 322 324 325 323
4 324 326 327 325
4 326 328 329 327
4 328 330 331 329
4 330 332 333 331
4 332 334 335 333
4 334 336 337 335
4 336 338 339 337
4 338 340 341 339
4 340 342 343 341
4 342 344 345 343
4 344 346 347 345
4 346 348 349 347
4 348 350 351 349
4 350 352 353 351
4 352 354 355 353
4 354 356 357 355
4 356 358 359 357
4 358 360 361 359
4 360 362 363 361
4 362 364 365 363
4 364 366 367 365
4 366 368 369 367
4 368 370 371 369
4 370 372 373 371
4 372 374 375 373
4 374 376 377 375
4 376 378 379 377
4 378 380 381 379
4 380 382 383 381
4 382 384 385 383
4 384 386 387 385
4 386 388 389 387
4 388 390 391 389
4 390 392 393 391
4 392 394 395 393
4 394 396 397 395
4 396 398 399 397
4 398 400 401 399
4 400 402 403 401
4 402 404 405 403
4 404 406 407 405
4 406 408 409 407
4 408 410 411 409
4 410 412 413 411
4 412 414 415 413
4 414 416 417 415
4 416 418 419 417
4 418 420 421 419
4 420 422 423 421
4 422 424 425 423
4 424 426 427 425
4 426 428 429 427
4 428 430 431 429
4 430 432 433 431
4 432 434 435 433
4 434 436 437 435
4 436 438 439 437
4 438 440 441 439
4 440 442 443 441
4 442 444 445 443
4 444 446 447 445
4 446 448 449 447
4 448 450 451 449
4 450 452 453 451
4 452 454 455 453
4 454 456 457 455
4 456 458 459 457
4 458 460 461 459
4 460 462 463 461
4 462 464 465 463
4 464 466 467 465
4 466 468 469 467
4 468 470 471 469
4 470 472 473 471
4 472 474 475 473
4 474 476 477 475
4 476 478 479 477
4 478 480 481 479
4 480 482 483 481
4 482 484 485 483
4 484 486 487 485
4 486 488 489 487
4 488 490 491 489
4 490 492 493 491
4 492 494 495 493
4 494 496 497 495
4 496 498 499 497
4 498 500 501 499
POINT_DATA 502
FIELD attributes 1
U 3 502 float
3.28595 0.0193664 -0.0451948
1.63376 0.0101422 -0.022272
1.63376 0.0101422 -0.022272
3.28595 0.0193664 -0.0451948
0.024297 0.000677433 0
0.024297 0.000677433 0
0.0181291 7.09774e-05 0
0.0181291 7.09774e-05 0
0.0154088 -6.74559e-05 0
0.0154088 -6.74559e-05 0
0.0148635 -9.34804e-05 0
0.0148635 -9.34804e-05 0
0.0155949 -0.000101773 0
0.0155949 -0.000101773 0
0.0166927 -7.17997e-05 0
0.0166927 -7.17997e-05 0
0.0170028 6.12817e-06 0
0.0170028 6.12817e-06 0
0.0182777 -7.58702e-05 0
0.0182777 -7.58702e-05 0
0.0186494 -8.94207e-05 0
0.0186494 -8.94207e-05 0
0.0190824 4.58028e-05 0
0.0190824 4.58028e-05 0
0.0218302 -0.000135016 0
0.0218302 -0.000135016 0
0.0228285 -0.000337484 0
0.0228285 -0.000337484 0
0.0232835 -7.61946e-05 0
0.0232835 -7.61946e-05 0
0.0277518 -5.63893e-06 0
0.0277518 -5.63893e-06 0
0.0379223 -0.000677171 0
0.0379223 -0.000677171 0
0.0305605 -0.000530151 0
0.0305605 -0.000530151 0
0.0193829 -0.000134338 0
0.0193829 -0.000134338 0
-0.0018163 0.0117455 0
-0.0018163 0.0117455 0
-0.00280771 0.0199812 0
-0.00280771 0.0199812 0
-0.00595348 0.0290847 0
-0.00595348 0.0290847 0
-0.00259399 0.0375853 -3.08035e-21
-0.00259399 0.0375853 -3.08035e-21
0.00582765 0.0390124 3.39034e-22
0.00582765 0.0390124 3.39034e-22
0.00796942 0.0338447 -2.67851e-22
0.00796942 0.0338447 -2.67851e-22
0.00674021 0.0243341 3.66498e-22
0.00674021 0.0243341 3.66498e-22
0.00384862 0.0157577 3.80224e-21
0.00384862 0.0157577 3.80224e-21
0.01169 0.0068622 0
0.01169 0.0068622 0
6.41051e-05 -0.000142576 0
6.41051e-05 -0.000142576 0
9.76287e-05 -0.000532431 0
9.76287e-05 -0.000532431 0
0.000127665 -0.0012245 0
0.000127665 -0.0012245 0
0.000118652 -0.00181983 0
0.000118652 -0.00181983 0
0.000105744 -0.00239169 -6.51228e-22
0.000105744 -0.00239169 -6.51228e-22
8.91134e-05 -0.00293018 -1.94084e-25
8.91134e-05 -0.00293018 -1.94084e-25
6.86984e-05 -0.00342546 6.51034e-22
6.86984e-05 -0.00342546 6.51034e-22
4.43513e-05 -0.00386643 1.31166e-21
4.43513e-05 -0.00386643 1.31166e-21
1.58554e-05 -0.0042403 5.54301e-25
1.58554e-05 -0.0042403 5.54301e-25
-1.70271e-05 -0.00453177 -1.31111e-21
-1.70271e-05 -0.00453177 -1.31111e-21
-5.45537e-05 -0.00472208 0
-5.45537e-05 -0.00472208 0
-9.61003e-05 -0.00478734 0
-9.61003e-05 -0.00478734 0
-0.00013803 -0.00469374 0
-0.00013803 -0.00469374 0
-0.000179169 -0.00438916 0
-0.000179169 -0.00438916 0
-0.000225575 -0.00378163 0
-0.000225575 -0.00378163 0
-0.000298689 -0.00257967 0
-0.000298689 -0.00257967 0
-0.000531678 -0.000582758 0
-0.000531678 -0.000582758 0
-0.000903619 0.00415624 0
-0.000903619 0.00415624 0
0.000136171 -0.000149365 0
0.000136171 -0.000149365 0
0.000283073 -0.000156823 0
0.000283073 -0.000156823 0
0.000433992 -0.000157697 0
0.000433992 -0.000157697 0
0.000587132 -0.000158057 0
0.000587132 -0.000158057 0
0.00074191 -0.000158303 0
0.00074191 -0.000158303 0
0.000898238 -0.00015846 -7.24147e-23
0.000898238 -0.00015846 -7.24147e-23
0.00105607 -0.000158524 -6.56666e-25
0.00105607 -0.000158524 -6.56666e-25
0.00121534 -0.000158483 7.2022e-23
0.00121534 -0.000158483 7.2022e-23
0.00137595 -0.000158323 7.08394e-23
0.00137595 -0.000158323 7.08394e-23
0.00153781 -0.000158035 7.09728e-23
0.00153781 -0.000158035 7.09728e-23
0.00170078 -0.000157605 0
0.00170078 -0.000157605 0
0.00186474 -0.000157017 0
0.00186474 -0.000157017 0
0.00202953 -0.000156258 -6.87408e-23
0.00202953 -0.000156258 -6.87408e-23
0.00219499 -0.000155314 -6.88764e-23
0.00219499 -0.000155314 -6.88764e-23
0.00236091 -0.00015418 0
0.00236091 -0.00015418 0
0.0025271 -0.000152847 6.7173e-23
0.0025271 -0.000152847 6.7173e-23
0.00269335 -0.000151305 6.73102e-23
0.00269335 -0.000151305 6.73102e-23
0.00285945 -0.000149556 0
0.00285945 -0.000149556 0
0.00302515 -0.000147607 0
0.00302515 -0.000147607 0
0.00319019 -0.000145455 -6.50982e-23
0.00319019 -0.000145455 -6.50982e-23
0.00335432 -0.000143088 -6.52373e-23
0.00335432 -0.000143088 -6.52373e-23
0.00351737 -0.00014052 -6.40697e-23
0.00351737 -0.00014052 -6.40697e-23
0.0036791 -0.000137782 -6.42097e-23
0.0036791 -0.000137782 -6.42097e-23
0.00383919 -0.00013488 0
0.00383919 -0.00013488 0
0.00399741 -0.000131802 -6.25406e-23
0.00399741 -0.000131802 -6.25406e-23
0.00415364 -0.000128564 -6.26819e-23
0.00415364 -0.000128564 -6.26819e-23
0.00430768 -0.000125214 6.15311e-23
0.00430768 -0.000125214 6.15311e-23
0.00445922 -0.000121771 6.16732e-23
0.00445922 -0.000121771 6.16732e-23
0.00460807 -0.00011821 -6.05302e-23
0.00460807 -0.00011821 -6.05302e-23
0.00475421 -0.000114534 -6.0673e-23
0.00475421 -0.000114534 -6.0673e-23
0.00489751 -0.000110814 0
0.00489751 -0.000110814 0
0.00503764 -0.000107094 0
0.00503764 -0.000107094 0
0.00517449 -0.00010333 0
0.00517449 -0.00010333 0
0.00530816 -9.95001e-05 0
0.00530816 -9.95001e-05 0
0.00543856 -9.56789e-05 5.75813e-23
0.00543856 -9.56789e-05 5.75813e-23
0.00556542 -9.1925e-05 5.77261e-23
0.00556542 -9.1925e-05 5.77261e-23
0.0056887 -8.81941e-05 -1.13233e-22
0.0056887 -8.81941e-05 -1.13233e-22
0.00580856 -8.44508e-05 -1.13524e-22
0.00580856 -8.44508e-05 -1.13524e-22
0.00592495 -8.07579e-05 1.11323e-22
0.00592495 -8.07579e-05 1.11323e-22
0.00603768 -7.71726e-05 1.11615e-22
0.00603768 -7.71726e-05 1.11615e-22
0.00614679 -7.36578e-05 0
0.00614679 -7.36578e-05 0
0.00625244 -7.01735e-05 -1.08492e-22
0.00625244 -7.01735e-05 -1.08492e-22
0.00635463 -6.67641e-05 -1.08786e-22
0.00635463 -6.67641e-05 -1.08786e-22
0.00645325 -6.34824e-05 -1.06629e-22
0.00645325 -6.34824e-05 -1.06629e-22
0.00654836 -6.03038e-05 -1.21907e-24
0.00654836 -6.03038e-05 -1.21907e-24
0.00664014 -5.71857e-05 1.05998e-22
0.00664014 -5.71857e-05 1.05998e-22
0.00672865 -5.41502e-05 1.03868e-22
0.00672865 -5.41502e-05 1.03868e-22
0.0068138 -5.12437e-05 2.07119e-22
0.0068138 -5.12437e-05 2.07119e-22
0.00689567 -4.84568e-05 1.03252e-22
0.00689567 -4.84568e-05 1.03252e-22
0.00697443 -4.57491e-05 0
0.00697443 -4.57491e-05 0
0.0070502 -4.31211e-05 0
0.0070502 -4.31211e-05 0
0.00712293 -4.06085e-05 0
0.00712293 -4.06085e-05 0
0.00719267 -3.82184e-05 0
0.00719267 -3.82184e-05 0
0.00725958 -3.59201e-05 -9.75868e-23
0.00725958 -3.59201e-05 -9.75868e-23
0.0073238 -3.36983e-05 -9.78834e-23
0.0073238 -3.36983e-05 -9.78834e-23
0.00738536 -3.15724e-05 9.58338e-23
0.00738536 -3.15724e-05 9.58338e-23
0.00744426 -2.95569e-05 9.61306e-23
0.00744426 -2.95569e-05 9.61306e-23
0.00750063 -2.76361e-05 0
0.00750063 -2.76361e-05 0
0.00755462 -2.57899e-05 -9.32387e-23
0.00755462 -2.57899e-05 -9.32387e-23
0.00760629 -2.40226e-05 -9.35356e-23
0.00760629 -2.40226e-05 -9.35356e-23
0.00765567 -2.23481e-05 9.15318e-23
0.00765567 -2.23481e-05 9.15318e-23
0.00770284 -2.07626e-05 9.18286e-23
0.00770284 -2.07626e-05 9.18286e-23
0.00774791 -1.92483e-05 0
0.00774791 -1.92483e-05 0
0.007791 -1.77985e-05 0
0.007791 -1.77985e-05 0
0.00783213 -1.64216e-05 -8.81733e-23
0.00783213 -1.64216e-05 -8.81733e-23
0.00787136 -1.51228e-05 -8.84695e-23
0.00787136 -1.51228e-05 -8.84695e-23
0.00790877 -1.38918e-05 0
0.00790877 -1.38918e-05 0
0.00794448 -1.27163e-05 -8.57028e-23
0.00794448 -1.27163e-05 -8.57028e-23
0.00797854 -1.15965e-05 -8.59984e-23
0.00797854 -1.15965e-05 -8.59984e-23
0.008011 -1.0539e-05 -8.4079e-23
0.008011 -1.0539e-05 -8.4079e-23
0.00804191 -9.54178e-06 -8.43739e-23
0.00804191 -9.54178e-06 -8.43739e-23
0.00807135 -8.59457e-06 0
0.00807135 -8.59457e-06 0
0.00809942 -7.69094e-06 0
0.00809942 -7.69094e-06 0
0.00812614 -6.83419e-06 8.08864e-23
0.00812614 -6.83419e-06 8.08864e-23
0.00815156 -6.02783e-06 8.11799e-23
0.00815156 -6.02783e-06 8.11799e-23
0.00817575 -5.26648e-06 0
0.00817575 -5.26648e-06 0
0.00819877 -4.54073e-06 7.85402e-23
0.00819877 -4.54073e-06 7.85402e-23
0.00822068 -3.84796e-06 1.56599e-22
0.00822068 -3.84796e-06 1.56599e-22
0.00824151 -3.19245e-06 7.80587e-23
0.00824151 -3.19245e-06 7.80587e-23
0.00826129 -2.57521e-06 7.62349e-23
0.00826129 -2.57521e-06 7.62349e-23
0.0082801 -1.9891e-06 7.65253e-23
0.0082801 -1.9891e-06 7.65253e-23
0.008298 -1.42475e-06 1.49441e-22
0.008298 -1.42475e-06 1.49441e-22
0.00831503 -8.79755e-07 1.5002e-22
0.00831503 -8.79755e-07 1.5002e-22
0.00833121 -3.61009e-07 1.46449e-22
0.00833121 -3.61009e-07 1.46449e-22
0.0083466 1.16112e-07 1.47024e-22
0.0083466 1.16112e-07 1.47024e-22
0.00836122 5.19197e-07 -1.43492e-22
0.00836122 5.19197e-07 -1.43492e-22
0.00837511 8.61644e-07 -1.44065e-22
0.00837511 8.61644e-07 -1.44065e-22
0.00838829 1.18267e-06 0
0.00838829 1.18267e-06 0
0.00840081 1.48275e-06 0
0.00840081 1.48275e-06 0
0.00841268 1.75875e-06 1.37685e-22
0.00841268 1.75875e-06 1.37685e-22
0.00842394 2.01676e-06 1.38251e-22
0.00842394 2.01676e-06 1.38251e-22
0.00843464 2.2654e-06 -1.34833e-22
0.00843464 2.2654e-06 -1.34833e-22
0.00844482 2.50678e-06 -1.35395e-22
0.00844482 2.50678e-06 -1.35395e-22
0.0084545 2.73534e-06 1.32016e-22
0.0084545 2.73534e-06 1.32016e-22
0.00846369 2.94553e-06 2.63194e-22
0.00846369 2.94553e-06 2.63194e-22
0.0084724 3.14063e-06 2.60409e-22
0.0084724 3.14063e-06 2.60409e-22
0.00848068 3.32644e-06 1.29787e-22
0.00848068 3.32644e-06 1.29787e-22
0.00848857 3.50598e-06 0
0.00848857 3.50598e-06 0
0.00849607 3.67801e-06 0
0.00849607 3.67801e-06 0
0.00850319 3.83911e-06 0
0.00850319 3.83911e-06 0
0.00850995 3.9877e-06 0
0.00850995 3.9877e-06 0
0.00851636 4.12563e-06 0
0.00851636 4.12563e-06 0
0.00852246 4.25671e-06 0
0.00852246 4.25671e-06 0
0.00852828 4.38327e-06 0
0.00852828 4.38327e-06 0
0.00853383 4.50416e-06 -1.17117e-22
0.00853383 4.50416e-06 -1.17117e-22
0.0085391 4.61671e-06 -2.33461e-22
0.0085391 4.61671e-06 -2.33461e-22
0.0085441 4.7203e-06 -1.16341e-22
0.0085441 4.7203e-06 -1.16341e-22
0.00854885 4.81666e-06 0
0.00854885 4.81666e-06 0
0.00855338 4.90826e-06 0
0.00855338 4.90826e-06 0
0.0085577 4.99663e-06 -1.10663e-22
0.0085577 4.99663e-06 -1.10663e-22
0.00856183 5.08116e-06 -1.11183e-22
0.00856183 5.08116e-06 -1.11183e-22
0.00856576 5.16049e-06 0
0.00856576 5.16049e-06 0
0.0085695 5.23429e-06 0
0.0085695 5.23429e-06 0
0.00857306 5.30334e-06 0
0.00857306 5.30334e-06 0
0.00857645 5.36884e-06 1.04397e-22
0.00857645 5.36884e-06 1.04397e-22
0.00857969 5.43171e-06 1.04903e-22
0.00857969 5.43171e-06 1.04903e-22
0.00858278 5.49207e-06 0
0.00858278 5.49207e-06 0
0.00858574 5.54967e-06 -1.00724e-22
0.00858574 5.54967e-06 -1.00724e-22
0.00858856 5.60455e-06 -1.70656e-24
0.00858856 5.60455e-06 -1.70656e-24
0.00859125 5.65672e-06 1.00007e-22
0.00859125 5.65672e-06 1.00007e-22
0.00859382 5.70614e-06 9.71138e-23
0.00859382 5.70614e-06 9.71138e-23
0.00859626 5.75282e-06 9.76003e-23
0.00859626 5.75282e-06 9.76003e-23
0.00859859 5.79708e-06 -9.47404e-23
0.00859859 5.79708e-06 -9.47404e-23
0.00860082 5.83967e-06 -9.52203e-23
0.00860082 5.83967e-06 -9.52203e-23
0.00860295 5.88119e-06 0
0.00860295 5.88119e-06 0
0.00860499 5.92169e-06 0
0.00860499 5.92169e-06 0
0.00860693 5.96077e-06 0
0.00860693 5.96077e-06 0
0.00860878 5.99799e-06 0
0.00860878 5.99799e-06 0
0.00861054 6.03342e-06 1.75551e-22
0.00861054 6.03342e-06 1.75551e-22
0.00861221 6.06763e-06 3.49741e-22
0.00861221 6.06763e-06 3.49741e-22
0.00861379 6.10116e-06 1.74183e-22
0.00861379 6.10116e-06 1.74183e-22
0.00861531 6.1343e-06 0
0.00861531 6.1343e-06 0
0.00861675 6.16716e-06 0
0.00861675 6.16716e-06 0
0.00861811 6.19938e-06 -1.64279e-22
0.00861811 6.19938e-06 -1.64279e-22
0.0086194 6.23058e-06 -1.65159e-22
0.0086194 6.23058e-06 -1.65159e-22
0.0086206 6.26088e-06 0
0.0086206 6.26088e-06 0
0.00862172 6.29069e-06 0
0.00862172 6.29069e-06 0
0.00862277 6.32056e-06 -1.55467e-22
0.00862277 6.32056e-06 -1.55467e-22
0.00862376 6.35067e-06 -3.02456e-24
0.00862376 6.35067e-06 -3.02456e-24
0.00862467 6.38057e-06 1.54132e-22
0.00862467 6.38057e-06 1.54132e-22
0.00862552 6.40974e-06 0
0.00862552 6.40974e-06 0
0.00862629 6.43809e-06 1.46826e-22
0.00862629 6.43809e-06 1.46826e-22
0.00862698 6.46593e-06 2.92334e-22
0.00862698 6.46593e-06 2.92334e-22
0.0086276 6.49362e-06 1.455e-22
0.0086276 6.49362e-06 1.455e-22
0.00862814 6.52159e-06 0
0.00862814 6.52159e-06 0
0.00862861 6.55014e-06 -1.38346e-22
0.00862861 6.55014e-06 -1.38346e-22
0.00862901 6.57912e-06 -2.87853e-24
0.00862901 6.57912e-06 -2.87853e-24
0.00862933 6.60814e-06 1.37024e-22
0.00862933 6.60814e-06 1.37024e-22
0.00862956 6.63685e-06 0
0.00862956 6.63685e-06 0
0.00862972 6.66526e-06 1.30016e-22
0.00862972 6.66526e-06 1.30016e-22
0.00862978 6.69371e-06 1.30764e-22
0.00862978 6.69371e-06 1.30764e-22
0.00862975 6.7227e-06 0
0.00862975 6.7227e-06 0
0.00862962 6.75273e-06 1.2386e-22
0.00862962 6.75273e-06 1.2386e-22
0.00862939 6.78386e-06 1.24581e-22
0.00862939 6.78386e-06 1.24581e-22
0.00862906 6.81631e-06 1.19797e-22
0.00862906 6.81631e-06 1.19797e-22
0.00862861 6.8503e-06 1.205e-22
0.00862861 6.8503e-06 1.205e-22
0.00862804 6.88579e-06 0
0.00862804 6.88579e-06 0
0.00862733 6.92336e-06 0
0.00862733 6.92336e-06 0
0.00862645 6.96362e-06 -1.11763e-22
0.00862645 6.96362e-06 -1.11763e-22
0.00862539 7.00736e-06 -1.12428e-22
0.00862539 7.00736e-06 -1.12428e-22
0.00862411 7.05586e-06 0
0.00862411 7.05586e-06 0
0.0086226 7.11001e-06 0
0.0086226 7.11001e-06 0
0.0086208 7.17109e-06 0
0.0086208 7.17109e-06 0
0.00861867 7.24138e-06 0
0.00861867 7.24138e-06 0
0.00861612 7.32299e-06 0
0.00861612 7.32299e-06 0
0.00861306 7.41873e-06 -9.7963e-23
0.00861306 7.41873e-06 -9.7963e-23
0.00860936 7.53402e-06 -1.94576e-22
0.00860936 7.53402e-06 -1.94576e-22
0.00860487 7.67506e-06 -9.66027e-23
0.00860487 7.67506e-06 -9.66027e-23
0.00859935 7.85202e-06 0