/*--------------------------------*- C++ -*----------------------------------*\
| =========                 |                                                 |
| \\      /  F ield         | OpenFOAM: The Open Source CFD Toolbox           |
|  \\    /   O peration     | Version:  2.1.x                                 |
|   \\  /    A nd           | Web:      www.OpenFOAM.org                      |
|    \\/     M anipulation  |                                                 |
\*---------------------------------------------------------------------------*/
FoamFile
{
    version     2.0;
    format      ascii;
    class       volScalarField;
    location    "0.006";
    object      k;
}
// * * * * * * * * * * * * * * * * * * * * * * * * * * * * * * * * * * * * * //

dimensions      [0 2 -2 0 0 0 0];

internalField   nonuniform List<scalar> 
12225
(
9.29786
9.23063
6.91161
4.86487
3.81592
3.26295
2.91509
2.65747
2.42324
2.27443
2.13419
2.08929
1.96948
1.95393
1.86265
1.87445
1.81392
1.92092
2.4658
5.09181
5.39546
5.08938
4.50648
4.03838
3.64927
3.31776
3.02658
2.80565
2.59247
2.45804
2.30487
2.19917
2.10182
1.99101
1.93806
1.89019
0.198899
1.30826
1.9515
2.47286
2.58645
2.54719
2.44101
2.32425
2.25142
2.12737
2.01456
1.87297
1.80424
1.67978
1.62528
1.51179
1.43907
1.38138
0.0100485
0.162763
0.387664
0.608868
0.796439
0.875002
0.884443
0.898122
0.953487
0.97635
0.975483
0.963857
0.951664
0.91772
0.867224
0.824364
0.745085
0.712352
0.000423892
0.013499
0.0426665
0.0825283
0.148554
0.185862
0.194083
0.202898
0.227293
0.256566
0.27728
0.288332
0.294693
0.293841
0.291078
0.283798
0.251982
0.230739
3.99341e-05
0.00078316
0.00276417
0.00628968
0.0159538
0.0256123
0.0282663
0.0296575
0.0326614
0.0348101
0.038589
0.0467894
0.0597944
0.0695168
0.0727917
0.0718358
0.0640427
0.0576514
2.54511e-05
7.20937e-05
0.000191623
0.000416613
0.00114516
0.00263196
0.00317055
0.00323263
0.00316268
0.00288215
0.00288312
0.00350812
0.00690262
0.0111116
0.0123159
0.0121465
0.0107443
0.00878215
2.84888e-05
3.65511e-05
4.12051e-05
5.2926e-05
0.000108922
0.000320792
0.000436209
0.000443714
0.000412494
0.000332184
0.000318696
0.000362202
0.000692068
0.00136645
0.00162395
0.00162225
0.00142535
0.00115194
2.29772e-05
3.50384e-05
3.53032e-05
3.3819e-05
3.70638e-05
5.94245e-05
9.90635e-05
0.000123518
0.000130528
0.000131381
0.000133329
0.000140354
0.000168501
0.000261833
0.000322855
0.000331487
0.000312541
0.000295402
4.23821e-05
4.56168e-05
4.35044e-05
4.28199e-05
4.47107e-05
4.8042e-05
4.85628e-05
4.77828e-05
4.82772e-05
5.41141e-05
7.72915e-05
0.000129157
0.000167201
0.000187097
0.000196578
0.000197251
0.00018339
0.000146033
2.69855e-05
2.94446e-05
2.85374e-05
2.93497e-05
3.45863e-05
3.66842e-05
3.58901e-05
3.2929e-05
3.26148e-05
3.34124e-05
3.60025e-05
4.25044e-05
6.40736e-05
9.39304e-05
0.000111595
0.000114983
0.000112811
0.000114665
2.26255e-05
2.28642e-05
2.43876e-05
3.23086e-05
4.28029e-05
4.40169e-05
4.179e-05
3.92837e-05
3.92741e-05
3.8928e-05
3.80076e-05
3.90882e-05
4.9192e-05
6.65228e-05
7.44979e-05
7.6916e-05
7.73434e-05
7.45089e-05
2.33912e-05
2.59127e-05
2.57728e-05
2.59495e-05
2.71187e-05
3.05193e-05
3.27326e-05
3.29436e-05
3.21026e-05
3.10324e-05
3.1177e-05
3.35231e-05
3.79601e-05
4.03673e-05
4.1811e-05
4.37861e-05
4.41144e-05
4.50048e-05
2.24422e-05
2.23482e-05
2.36905e-05
2.52256e-05
2.57958e-05
2.63468e-05
2.90496e-05
3.91573e-05
4.51403e-05
4.57584e-05
4.45098e-05
3.87564e-05
3.26471e-05
2.94938e-05
2.81068e-05
2.78953e-05
2.89667e-05
3.25382e-05
2.19043e-05
2.90056e-05
3.25744e-05
3.27095e-05
3.08644e-05
2.83887e-05
2.7367e-05
2.70555e-05
2.71357e-05
2.79075e-05
3.05673e-05
3.22359e-05
3.275e-05
3.28083e-05
3.26607e-05
3.28389e-05
3.42985e-05
4.26043e-05
2.13584e-05
2.75201e-05
3.02829e-05
2.97221e-05
2.70634e-05
2.50915e-05
2.48279e-05
2.53016e-05
2.78891e-05
3.0674e-05
3.14137e-05
3.13164e-05
3.04875e-05
2.99791e-05
2.93999e-05
2.88993e-05
3.05341e-05
5.79184e-05
2.12869e-05
2.54645e-05
3.19117e-05
3.20737e-05
2.96912e-05
2.72275e-05
2.64594e-05
2.61194e-05
2.6083e-05
2.61775e-05
2.65386e-05
2.66752e-05
2.66641e-05
2.64108e-05
2.63645e-05
2.72736e-05
3.0453e-05
3.66639e-05
2.50426e-05
3.31362e-05
3.32443e-05
3.33382e-05
3.46069e-05
3.46514e-05
3.28087e-05
3.02937e-05
2.92608e-05
2.88318e-05
2.87224e-05
2.92283e-05
3.29302e-05
3.87223e-05
4.19533e-05
4.30087e-05
4.24047e-05
4.25747e-05
2.05886e-05
2.45434e-05
2.5946e-05
2.70755e-05
3.44793e-05
5.1547e-05
5.65435e-05
5.45247e-05
4.31768e-05
3.24829e-05
2.78846e-05
2.6397e-05
2.62805e-05
2.71978e-05
3.00342e-05
3.15572e-05
3.27479e-05
3.39061e-05
2.22008e-05
2.41145e-05
2.36393e-05
2.39367e-05
2.60693e-05
2.85757e-05
3.42971e-05
4.38781e-05
4.78783e-05
4.80103e-05
4.6205e-05
3.92082e-05
3.27769e-05
2.96714e-05
2.83085e-05
2.76823e-05
2.76401e-05
2.80323e-05
2.1719e-05
2.17414e-05
2.26466e-05
2.52974e-05
2.8689e-05
3.01969e-05
3.12168e-05
3.38586e-05
3.69812e-05
3.79571e-05
3.79506e-05
3.77322e-05
3.68592e-05
3.51622e-05
3.42677e-05
3.37625e-05
3.34862e-05
3.32336e-05
2.13544e-05
2.75652e-05
3.62298e-05
3.66502e-05
3.29374e-05
2.96098e-05
2.94465e-05
3.02431e-05
3.28052e-05
3.45355e-05
3.53926e-05
3.63958e-05
3.8493e-05
4.39979e-05
5.5407e-05
6.54162e-05
7.42689e-05
7.81329e-05
2.60782e-05
4.39686e-05
4.23666e-05
3.46092e-05
3.20005e-05
3.27798e-05
3.74704e-05
5.09915e-05
6.08873e-05
6.53497e-05
6.85138e-05
7.39145e-05
8.55986e-05
0.000117545
0.000170171
0.000200369
0.000227911
0.000230841
2.90719e-05
3.38747e-05
3.50651e-05
4.42483e-05
6.88234e-05
0.000125356
0.000265711
0.000392231
0.00045212
0.000485147
0.000535224
0.000635045
0.000865053
0.001417
0.00200989
0.00237865
0.00264651
0.00266947
2.35361e-05
5.97038e-05
0.000212858
0.000575757
0.00100273
0.00182309
0.0036684
0.00579291
0.00704831
0.00772301
0.00830442
0.00932513
0.0117263
0.0153924
0.0189989
0.0215785
0.0236145
0.0243442
3.09928e-05
0.000869787
0.0045403
0.0117617
0.0183385
0.0315476
0.0501679
0.0677141
0.0781513
0.0860404
0.0915527
0.0992346
0.108109
0.118551
0.1267
0.1339
0.137722
0.140943
0.000529287
0.0187862
0.0856949
0.158425
0.228609
0.312294
0.389341
0.442047
0.472461
0.490684
0.501436
0.51123
0.518694
0.525501
0.52823
0.528243
0.527098
0.523863
0.0234435
0.306937
0.897101
1.19017
1.40345
1.58105
1.68648
1.70013
1.6898
1.66255
1.61921
1.57326
1.52015
1.47149
1.41403
1.37254
1.31587
1.28344
0.667006
3.26097
4.36626
4.41018
4.27255
3.96891
3.63868
3.34163
3.08113
2.85222
2.64907
2.46534
2.29869
2.1486
2.00859
1.89243
1.76626
1.69119
7.00246
9.84414
8.61573
6.45318
5.02744
4.08672
3.43764
2.97912
2.63707
2.3746
2.15765
1.97682
1.81431
1.67206
1.53684
1.41893
1.29936
1.2063
0.000333104
0.000574908
0.000930838
0.00160539
0.00272654
0.00441498
0.00677423
0.00985919
0.0136657
0.0181446
0.0231903
0.0286668
0.0344035
0.0402124
0.0459069
0.0513024
0.0562389
0.0605686
0.0642092
0.0670706
0.0685843
0.069284
0.0694792
0.0686986
0.0670035
0.0648655
0.0624037
0.0597959
0.0571602
0.0546223
0.0522949
0.0502775
0.0486584
0.0475323
0.0469523
0.0469223
0.0476029
0.049028
0.0512715
0.0543958
0.0585076
0.0636972
0.0700419
0.0776397
0.0865775
0.0969227
0.108731
0.12204
0.13686
0.153174
0.170937
0.190079
0.210505
0.232089
0.254689
0.278146
0.302296
0.326965
0.351972
0.377141
0.402307
0.427318
0.452029
0.476307
0.500038
0.523135
0.545515
0.567119
0.587895
0.607808
0.626878
0.645023
0.662289
0.678827
0.694324
0.708608
0.721995
0.734626
0.746576
0.757893
0.768617
0.778778
0.788418
0.797564
0.806237
0.814476
0.822315
0.829761
0.836831
0.84355
0.849942
0.856033
0.861845
0.867394
0.872693
0.877758
0.882606
0.887251
0.891704
0.895977
0.900079
0.904023
0.90782
0.911477
0.915001
0.918399
0.921679
0.924851
0.92792
0.930889
0.933763
0.936546
0.939249
0.941883
0.944441
0.946924
0.949333
0.951673
0.953948
0.956162
0.958318
0.960418
0.962465
0.964459
0.966403
0.968298
0.970146
0.971951
0.973712
0.97543
0.977105
0.97873
0.980315
0.981862
0.983373
0.984848
0.986286
0.987686
0.989049
0.990375
0.991666
0.992923
0.994145
0.995331
0.99648
0.997592
0.998668
0.999709
1.00072
1.00169
1.00262
1.00351
1.00436
1.00516
1.00593
1.00665
1.00731
1.00792
1.00847
1.00896
1.00934
1.00968
1.0098
1.01009
1.00954
1.01029
1.00795
1.00991
1.00451
1.00847
0.998664
1.00483
0.990275
0.994868
0.978813
0.975555
0.961179
0.932111
0.922816
0.838495
0.00201139
0.000601764
0.000587375
0.00076939
0.00107627
0.00148677
0.00200037
0.00259717
0.00323949
0.00388297
0.00447658
0.0049694
0.00531638
0.00548414
0.0055299
0.00537737
0.00508804
0.00466379
0.00416462
0.00363326
0.00310996
0.00266544
0.00235107
0.002195
0.00219121
0.00230042
0.00241391
0.00253809
0.00267253
0.00281573
0.00296779
0.00312687
0.00329262
0.00346527
0.00364638
0.00383808
0.00404275
0.00426525
0.00451062
0.00478273
0.00509082
0.00544421
0.00584962
0.00631861
0.00686174
0.00749081
0.00821852
0.00905542
0.0100137
0.0111063
0.0123457
0.0137446
0.015315
0.017068
0.0190138
0.0211613
0.0235177
0.0260891
0.0288793
0.0318893
0.0351217
0.0385649
0.0422348
0.0460911
0.0501681
0.0544217
0.0588336
0.0634716
0.0681628
0.0730827
0.0780977
0.0831284
0.0884321
0.0936678
0.0988958
0.104506
0.110376
0.116419
0.122565
0.128752
0.134953
0.141119
0.147243
0.153302
0.159271
0.165174
0.170967
0.176635
0.182182
0.187611
0.192933
0.198151
0.203269
0.208301
0.213253
0.218124
0.222922
0.227655
0.232327
0.23694
0.241499
0.246008
0.250472
0.254894
0.259279
0.26363
0.267951
0.272245
0.276515
0.280765
0.284997
0.289215
0.293422
0.297619
0.30181
0.305996
0.310181
0.314366
0.318554
0.322745
0.326942
0.331148
0.335364
0.339592
0.343833
0.348089
0.352361
0.356651
0.360959
0.365287
0.369639
0.374013
0.37841
0.38283
0.387274
0.391745
0.396243
0.40077
0.405325
0.409907
0.414517
0.419155
0.423824
0.428524
0.433255
0.438016
0.442808
0.447628
0.452479
0.457362
0.462277
0.467224
0.472202
0.477211
0.48225
0.48732
0.492423
0.497554
0.502722
0.507912
0.513153
0.518394
0.523725
0.528988
0.534459
0.539686
0.545405
0.550435
0.556678
0.561148
0.568308
0.572127
0.58074
0.583657
0.59426
0.595776
0.610117
0.610242
0.622213
0.660195
0.00713543
0.000796073
0.000526802
0.000525957
0.00056849
0.000630936
0.000700323
0.000769735
0.000830374
0.000868411
0.000882988
0.000881085
0.000849928
0.000807962
0.000759815
0.000709412
0.000669979
0.000644778
0.000632839
0.000640966
0.000671144
0.00072138
0.000790371
0.000875493
0.00097601
0.0010821
0.00118982
0.0012951
0.00139483
0.00148612
0.00156681
0.00163452
0.00168721
0.00172067
0.0017365
0.00174121
0.00172718
0.00169954
0.00165885
0.00160677
0.00154603
0.00147887
0.00140726
0.00133267
0.00125585
0.001178
0.00110064
0.00102903
0.000965056
0.000909624
0.000863481
0.000827222
0.00080127
0.00078597
0.000781029
0.000787963
0.00080706
0.000837912
0.00088108
0.000937189
0.00100692
0.00109024
0.00118868
0.00130066
0.00142975
0.00157395
0.00173371
0.00191339
0.002107
0.0023194
0.00255396
0.00279682
0.00307104
0.00335129
0.00365962
0.0039756
0.00432306
0.00468823
0.00507494
0.00549457
0.00591776
0.0063851
0.00685536
0.00734541
0.00787526
0.00838435
0.0089408
0.00955521
0.0102164
0.0109195
0.0116589
0.0124257
0.0132193
0.0140358
0.014866
0.0157061
0.0165534
0.017407
0.0182659
0.0191283
0.0199931
0.0208596
0.0217272
0.0225956
0.0234649
0.0243348
0.0252056
0.0260774
0.0269504
0.027825
0.0287017
0.0295812
0.0304643
0.0313514
0.032243
0.0331397
0.0340422
0.0349514
0.0358681
0.0367931
0.037727
0.0386705
0.0396247
0.0405903
0.0415684
0.0425597
0.0435649
0.0445848
0.0456201
0.0466719
0.0477411
0.0488286
0.0499351
0.0510609
0.052207
0.0533744
0.0545641
0.0557772
0.0570142
0.0582757
0.0595622
0.0608744
0.0622136
0.0635811
0.0649778
0.0664042
0.0678606
0.0693479
0.0708669
0.072419
0.0740055
0.0756275
0.0772858
0.0789812
0.0807149
0.0824873
0.0843031
0.0861553
0.0880671
0.0899919
0.0920386
0.0939865
0.0962852
0.0980981
0.100907
0.102343
0.105831
0.107156
0.111111
0.11227
0.117128
0.118064
0.123844
0.124865
0.131669
0.13334
0.142451
0.145518
0.154386
0.191101
0.0193568
0.00131907
0.000556412
0.00052263
0.000528857
0.000540402
0.000548273
0.000555071
0.000559689
0.000562387
0.000564406
0.000568051
0.000575037
0.000588735
0.000610218
0.000642298
0.00068571
0.000748843
0.000835468
0.000947775
0.00108491
0.00124513
0.0014257
0.00162037
0.00182407
0.00202637
0.00221696
0.00238789
0.00253011
0.00264201
0.00271106
0.00274356
0.00275351
0.00272217
0.00265967
0.00256965
0.0024587
0.00233088
0.00219147
0.00204354
0.00189261
0.00174288
0.00159713
0.00145662
0.00132347
0.00119903
0.00108383
0.000976278
0.000876161
0.000783603
0.000698583
0.000620944
0.000550369
0.000486477
0.00042895
0.000377512
0.000331791
0.000291288
0.000255308
0.000223063
0.00019431
0.000169286
0.000147715
0.000129272
0.000113793
0.000100893
9.02377e-05
8.17277e-05
7.51737e-05
7.02345e-05
6.68944e-05
6.47492e-05
6.41557e-05
6.435e-05
6.59287e-05
6.80998e-05
7.14136e-05
7.53508e-05
8.02649e-05
8.58254e-05
9.22051e-05
9.94396e-05
0.000107122
0.00011607
0.000125077
0.000135329
0.000146431
0.000157117
0.000170692
0.000184644
0.000198333
0.000216417
0.000233806
0.000250889
0.000274341
0.000303578
0.000338049
0.00037722
0.000420267
0.000466513
0.000515426
0.000566558
0.000619547
0.000674104
0.000729988
0.000787
0.000844982
0.000903805
0.000963367
0.00102358
0.0010844
0.00114581
0.00120782
0.00127039
0.00133351
0.00139718
0.00146142
0.00152629
0.00159183
0.00165812
0.00172517
0.00179305
0.00186183
0.0019316
0.00200245
0.00207448
0.00214778
0.00222242
0.0022985
0.00237611
0.00245539
0.00253645
0.0026194
0.00270431
0.00279131
0.00288052
0.00297212
0.00306624
0.00316301
0.00326253
0.00336489
0.00347024
0.00357879
0.00369074
0.00380627
0.0039255
0.00404855
0.00417558
0.00430678
0.00444242
0.00458278
0.00472811
0.00487862
0.0050345
0.00519622
0.00536352
0.00553846
0.0057174
0.00591022
0.00609708
0.00632116
0.00649939
0.00678812
0.00692366
0.00731178
0.00742745
0.00787989
0.00799606
0.00859466
0.00866338
0.00948946
0.00949413
0.0105913
0.0106296
0.0119808
0.0122819
0.0142511
0.01506
0.0172853
0.026946
0.0450519
0.0024072
0.000621004
0.000554025
0.000553621
0.000562604
0.000574705
0.00058323
0.000592993
0.000607925
0.000630574
0.000663905
0.000713697
0.000784278
0.000882414
0.00101374
0.00118897
0.00140917
0.00167694
0.00199636
0.00237037
0.00279719
0.00326987
0.00377256
0.00428613
0.00476412
0.0051705
0.0054956
0.00569744
0.00579462
0.00582494
0.00573146
0.00556737
0.00534287
0.00505395
0.00471804
0.00435769
0.00398507
0.00361416
0.00325407
0.00291472
0.0026004
0.00231234
0.00205051
0.00181377
0.00160084
0.00141008
0.00123968
0.00108782
0.000952718
0.000832738
0.000726372
0.000632298
0.000549286
0.000476106
0.000411587
0.000354766
0.000304949
0.000261628
0.000224274
0.00019212
0.000164276
0.000140132
0.000119228
0.000101177
8.56276e-05
7.22698e-05
6.08328e-05
5.10744e-05
4.2768e-05
3.57239e-05
2.97741e-05
2.47785e-05
2.05758e-05
1.7051e-05
1.41114e-05
1.16773e-05
9.67357e-06
8.03621e-06
6.69992e-06
5.62892e-06
4.77084e-06
4.08624e-06
3.56975e-06
3.16063e-06
2.8578e-06
2.66019e-06
2.50861e-06
2.42338e-06
2.41304e-06
2.40967e-06
2.45889e-06
2.57775e-06
2.67955e-06
2.791e-06
3.03424e-06
3.28943e-06
3.51781e-06
3.96631e-06
4.65484e-06
5.55032e-06
6.62386e-06
7.85328e-06
9.22014e-06
1.07089e-05
1.23061e-05
1.40007e-05
1.57826e-05
1.76429e-05
1.95736e-05
2.15682e-05
2.36212e-05
2.5728e-05
2.78835e-05
3.00824e-05
3.23206e-05
3.45954e-05
3.69058e-05
3.92511e-05
4.16306e-05
4.40428e-05
4.6487e-05
4.8964e-05
5.1476e-05
5.40259e-05
5.66162e-05
5.92493e-05
6.19272e-05
6.46521e-05
6.74276e-05
7.02583e-05
7.31491e-05
7.61046e-05
7.9128e-05
8.22239e-05
8.53983e-05
8.86578e-05
9.20084e-05
9.54562e-05
9.90063e-05
0.000102664
0.000106435
0.00011033
0.000114358
0.000118528
0.000122846
0.000127319
0.000131955
0.000136765
0.000141764
0.000146966
0.000152384
0.000158033
0.000163921
0.000170089
0.000176493
0.000183332
0.000190225
0.000198134
0.000205108
0.000215282
0.000220865
0.000235852
0.00023868
0.000258638
0.000261816
0.000286608
0.000288423
0.000324703
0.000323331
0.000376893
0.000372355
0.000451198
0.00045164
0.000554471
0.000586238
0.000752279
0.000853353
0.00108987
0.00234566
0.0867748
0.00504774
0.000942258
0.000662881
0.000651042
0.000654922
0.000650278
0.000682218
0.000731095
0.000793211
0.000876763
0.000997251
0.00115674
0.00137562
0.00166509
0.00204908
0.00254118
0.00317154
0.00395443
0.00491203
0.00604615
0.00733831
0.00873786
0.0101588
0.0115177
0.0126672
0.0135227
0.014017
0.0142145
0.0141869
0.0138608
0.0132802
0.0126245
0.0118148
0.0108929
0.00986638
0.00881092
0.00774922
0.00673103
0.00578633
0.004938
0.00419705
0.00356258
0.00302605
0.00257451
0.00219535
0.00187618
0.00160637
0.0013772
0.00118175
0.0010145
0.000870981
0.00074753
0.000641175
0.000549524
0.000470584
0.000402599
0.000343996
0.000293421
0.00024978
0.000212186
0.000179879
0.000152176
0.000128469
0.000108215
9.09434e-05
7.62461e-05
6.37649e-05
5.31892e-05
4.42528e-05
3.67198e-05
3.03813e-05
2.50612e-05
2.06165e-05
1.69185e-05
1.38472e-05
1.13023e-05
9.19915e-06
7.46587e-06
6.04158e-06
4.87512e-06
3.92275e-06
3.1476e-06
2.51912e-06
2.01079e-06
1.60091e-06
1.2719e-06
1.00833e-06
7.98112e-07
6.31362e-07
4.98791e-07
3.94385e-07
3.12847e-07
2.48372e-07
1.98613e-07
1.60402e-07
1.30552e-07
1.08913e-07
9.25405e-08
8.04238e-08
7.56779e-08
7.56504e-08
8.30926e-08
9.68302e-08
1.15715e-07
1.39305e-07
1.67218e-07
1.99125e-07
2.34737e-07
2.73789e-07
3.1604e-07
3.61276e-07
4.09288e-07
4.59863e-07
5.12767e-07
5.6779e-07
6.24751e-07
6.83518e-07
7.43966e-07
8.05979e-07
8.69413e-07
9.34144e-07
1.00011e-06
1.06728e-06
1.13568e-06
1.20532e-06
1.27618e-06
1.34826e-06
1.42155e-06
1.49611e-06
1.57203e-06
1.64941e-06
1.72838e-06
1.80899e-06
1.89134e-06
1.97556e-06
2.06182e-06
2.15027e-06
2.24109e-06
2.33443e-06
2.43047e-06
2.52934e-06
2.63132e-06
2.73663e-06
2.84557e-06
2.95829e-06
3.07504e-06
3.19608e-06
3.32174e-06
3.45245e-06
3.58857e-06
3.73058e-06
3.879e-06
4.03387e-06
4.19721e-06
4.36628e-06
4.55074e-06
4.73106e-06
4.95459e-06
5.12527e-06
5.44079e-06
5.54079e-06
6.03221e-06
6.07374e-06
6.68111e-06
6.74401e-06
7.57817e-06
7.58695e-06
8.83364e-06
8.77553e-06
1.07295e-05
1.0648e-05
1.36071e-05
1.40249e-05
1.81993e-05
2.0461e-05
2.80892e-05
3.61051e-05
5.07497e-05
0.000154607
0.160438
0.00825903
0.000987782
0.000747019
0.000742399
0.000797742
0.000994478
0.00107712
0.00110543
0.00122202
0.00140955
0.00169534
0.00211857
0.00269318
0.00348652
0.00455147
0.00599499
0.00785933
0.0102348
0.0131183
0.0164823
0.0201754
0.0239384
0.0274694
0.0305081
0.0327749
0.0339089
0.0343425
0.0340785
0.0331751
0.0319318
0.030072
0.0284171
0.0263126
0.024125
0.0216756
0.0191742
0.0166047
0.0141019
0.0117431
0.0096212
0.00779469
0.00627847
0.0050517
0.00407688
0.00331013
0.00270747
0.0022309
0.00185026
0.00154272
0.00129147
0.00108429
0.0009122
0.000768466
0.000647887
0.000546397
0.000460793
0.000388507
0.000327426
0.000275781
0.000232093
0.000195127
0.000163851
0.000137395
0.000115027
9.61326e-05
8.01911e-05
6.6761e-05
5.54635e-05
4.5974e-05
3.80183e-05
3.13636e-05
2.581e-05
2.11854e-05
1.73433e-05
1.41595e-05
1.15286e-05
9.36079e-06
7.57943e-06
6.11985e-06
4.92747e-06
3.95639e-06
3.1678e-06
2.52919e-06
2.01361e-06
1.59875e-06
1.26595e-06
9.99708e-07
7.8732e-07
6.18386e-07
4.84387e-07
3.78423e-07
2.94885e-07
2.29185e-07
1.77664e-07
1.37381e-07
1.05975e-07
8.15678e-08
6.26437e-08
4.80178e-08
3.67443e-08
2.80754e-08
2.14836e-08
1.6527e-08
1.28528e-08
1.0189e-08
8.31805e-09
7.09488e-09
6.33863e-09
6.05486e-09
6.03674e-09
6.29514e-09
6.78035e-09
7.44468e-09
8.25603e-09
9.19153e-09
1.02333e-08
1.13673e-08
1.25824e-08
1.38696e-08
1.52203e-08
1.66274e-08
1.80858e-08
1.95916e-08
2.11423e-08
2.27353e-08
2.43685e-08
2.60393e-08
2.7746e-08
2.94878e-08
3.12656e-08
3.30806e-08
3.49345e-08
3.68277e-08
3.87612e-08
4.07373e-08
4.27588e-08
4.48287e-08
4.69516e-08
4.91311e-08
5.13712e-08
5.3675e-08
5.60476e-08
5.84942e-08
6.10219e-08
6.36344e-08
6.6339e-08
6.91424e-08
7.20528e-08
7.5081e-08
7.82339e-08
8.15245e-08
8.49687e-08
8.85625e-08
9.23751e-08
9.63016e-08
1.00678e-07
1.04805e-07
1.10342e-07
1.13936e-07
1.22309e-07
1.23663e-07
1.3666e-07
1.37526e-07
1.52746e-07
1.5424e-07
1.7635e-07
1.77127e-07
2.10536e-07
2.11174e-07
2.6455e-07
2.69513e-07
3.52392e-07
3.82229e-07
5.14281e-07
6.23671e-07
8.83729e-07
1.3314e-06
2.06654e-06
8.76295e-06
0.227025
0.0145561
0.00157583
0.00114677
0.00118223
0.00120662
0.0011267
0.00124908
0.00149821
0.00186996
0.00242669
0.00311174
0.00411193
0.00558092
0.00767965
0.0106009
0.014475
0.0195074
0.0257184
0.0331355
0.0415094
0.0502303
0.0581183
0.0651091
0.0699443
0.0721364
0.0728369
0.0717724
0.0692765
0.0659733
0.0631492
0.0588427
0.0556596
0.0513365
0.0472889
0.0428896
0.0384681
0.0338361
0.0291261
0.024371
0.0197793
0.0156262
0.0121248
0.00930643
0.0071125
0.00545504
0.00422144
0.00330606
0.0026224
0.00210513
0.00170719
0.00139569
0.00114791
0.000948162
0.000785469
0.000651991
0.000541939
0.000450881
0.000375327
0.000312498
0.000260168
0.00021654
0.000180145
0.000149766
0.000124398
0.000103214
8.55301e-05
7.07753e-05
5.84716e-05
4.82206e-05
3.96907e-05
3.26041e-05
2.67264e-05
2.18595e-05
1.78371e-05
1.452e-05
1.17909e-05
9.55082e-06
7.71655e-06
6.21833e-06
4.9979e-06
4.00644e-06
3.20312e-06
2.55402e-06
2.03095e-06
1.61071e-06
1.27405e-06
1.00507e-06
7.90789e-07
6.20535e-07
4.85651e-07
3.79112e-07
2.95181e-07
2.29231e-07
1.77563e-07
1.37201e-07
1.0575e-07
8.13094e-08
6.2368e-08
4.77229e-08
3.64305e-08
2.77482e-08
2.10879e-08
1.59902e-08
1.20982e-08
9.13545e-09
6.88622e-09
5.18378e-09
3.89901e-09
2.93344e-09
2.20999e-09
1.67089e-09
1.27181e-09
9.78836e-10
7.66202e-10
6.14216e-10
5.08202e-10
4.36672e-10
3.9145e-10
3.65787e-10
3.55512e-10
3.55802e-10
3.65117e-10
3.80928e-10
4.01744e-10
4.26499e-10
4.54383e-10
4.84783e-10
5.17255e-10
5.5148e-10
5.87249e-10
6.24409e-10
6.62859e-10
7.02514e-10
7.43319e-10
7.85264e-10
8.28357e-10
8.72625e-10
9.18137e-10
9.64955e-10
1.01315e-09
1.06278e-09
1.11392e-09
1.16665e-09
1.22114e-09
1.27746e-09
1.33579e-09
1.39631e-09
1.45916e-09
1.52462e-09
1.59277e-09
1.66393e-09
1.73854e-09
1.8164e-09
1.89946e-09
1.98457e-09
2.08136e-09
2.16948e-09
2.29659e-09
2.36713e-09
2.56762e-09
2.58812e-09
2.88264e-09
2.91036e-09
3.25848e-09
3.3019e-09
3.81536e-09
3.87352e-09
4.65234e-09
4.77589e-09
6.06433e-09
6.44852e-09
8.62716e-09
9.93273e-09
1.38618e-08
1.89471e-08
2.74279e-08
4.73841e-08
8.47221e-08
4.85478e-07
0.356496
0.0240169
0.00196061
0.00112178
0.00112862
0.00129743
0.00157604
0.00238279
0.00277134
0.00324315
0.00405691
0.00568287
0.00812211
0.0117042
0.0167802
0.0237737
0.0331347
0.0457289
0.0602794
0.0744408
0.0900912
0.105663
0.120027
0.127844
0.130839
0.131412
0.127542
0.121287
0.115501
0.107845
0.103495
0.0960498
0.0904756
0.0824972
0.0754227
0.0687346
0.0625564
0.0567556
0.0511393
0.0451528
0.0383602
0.030886
0.0237294
0.0179216
0.0132423
0.00970899
0.00712549
0.00527325
0.00395564
0.00301697
0.00234104
0.00184531
0.00147351
0.00118825
0.000965003
0.000787554
0.000644908
0.000529313
0.000435102
0.000358021
0.000294796
0.000242842
0.000200082
0.000164841
0.000135767
0.000111769
9.1955e-05
7.55895e-05
6.20694e-05
5.09024e-05
4.16854e-05
3.40846e-05
2.78219e-05
2.26669e-05
1.84299e-05
1.49537e-05
1.21071e-05
9.7805e-06
7.88251e-06
6.33759e-06
5.08318e-06
4.06709e-06
3.24598e-06
2.58407e-06
2.05187e-06
1.62516e-06
1.28394e-06
1.01176e-06
7.95222e-07
6.23419e-07
4.87488e-07
3.80252e-07
2.95857e-07
2.29609e-07
1.77751e-07
1.37262e-07
1.05739e-07
8.12655e-08
6.23096e-08
4.76589e-08
3.63656e-08
2.76859e-08
2.103e-08
1.59384e-08
1.20528e-08
9.09473e-09
6.84792e-09
5.14551e-09
3.85874e-09
2.88824e-09
2.15774e-09
1.60909e-09
1.19795e-09
8.90575e-10
6.61268e-10
4.90541e-10
3.63677e-10
2.69591e-10
1.99981e-10
1.48607e-10
1.10808e-10
8.30937e-11
6.2859e-11
4.81532e-11
3.753e-11
2.99194e-11
2.45318e-11
2.07844e-11
1.82445e-11
1.66031e-11
1.55985e-11
1.51095e-11
1.49439e-11
1.50543e-11
1.5374e-11
1.58449e-11
1.64324e-11
1.7113e-11
1.78702e-11
1.86923e-11
1.95717e-11
2.05022e-11
2.14801e-11
2.25034e-11
2.35726e-11
2.46873e-11
2.58504e-11
2.70643e-11
2.83302e-11
2.96535e-11
3.10357e-11
3.24822e-11
3.40045e-11
3.55953e-11
3.73028e-11
3.90451e-11
4.10655e-11
4.2847e-11
4.55851e-11
4.69161e-11
5.13375e-11
5.17224e-11
5.79142e-11
5.87532e-11
6.62733e-11
6.77559e-11
7.8777e-11
8.18821e-11
9.97507e-11
1.06911e-10
1.41524e-10
1.59718e-10
2.34944e-10
2.96032e-10
4.35565e-10
7.84559e-10
1.28301e-09
2.64222e-09
5.89239e-09
3.56955e-08
0.480294
0.0363336
0.00225062
0.00125298
0.00161666
0.00214948
0.00280676
0.00299764
0.00366868
0.00500526
0.00752582
0.011409
0.0165526
0.0240187
0.0353181
0.0525841
0.0734394
0.0913132
0.11564
0.14403
0.170781
0.18121
0.185219
0.186169
0.183592
0.176288
0.171377
0.166493
0.158883
0.150642
0.145493
0.13855
0.130248
0.115328
0.101266
0.0891269
0.0786652
0.0706039
0.063881
0.0582218
0.053264
0.0478612
0.0411163
0.0327154
0.0242935
0.0175575
0.0125628
0.00895398
0.00639672
0.00461465
0.00338424
0.00253311
0.00193632
0.00150821
0.00119253
0.000953414
0.00076813
0.000622073
0.000505522
0.000411734
0.000335831
0.00027416
0.000223919
0.000182921
0.000149434
0.000122065
9.96813e-05
8.13648e-05
6.63719e-05
5.41002e-05
4.40571e-05
3.58383e-05
2.91138e-05
2.36155e-05
1.91249e-05
1.5462e-05
1.24777e-05
1.00494e-05
8.07671e-06
6.47726e-06
5.1833e-06
4.13851e-06
3.29663e-06
2.61978e-06
2.07689e-06
1.64259e-06
1.29595e-06
1.01993e-06
8.00716e-07
6.27072e-07
4.89886e-07
3.81787e-07
2.96803e-07
2.30166e-07
1.78062e-07
1.37417e-07
1.05793e-07
8.12563e-08
6.22643e-08
4.75999e-08
3.63054e-08
2.76283e-08
2.09773e-08
1.58913e-08
1.20124e-08
9.06049e-09
6.81937e-09
5.12192e-09
3.83929e-09
2.87221e-09
2.14456e-09
1.59827e-09
1.18902e-09
8.83097e-10
6.54858e-10
4.8489e-10
3.58532e-10
2.64751e-10
1.95259e-10
1.43845e-10
1.05872e-10
7.78738e-11
5.72616e-11
4.21036e-11
3.09654e-11
2.2787e-11
1.67879e-11
1.23925e-11
9.17509e-12
6.82123e-12
5.09845e-12
3.83804e-12
2.91502e-12
2.24084e-12
1.74965e-12
1.39265e-12
1.13391e-12
9.47211e-13
8.13588e-13
7.19222e-13
6.53966e-13
6.10301e-13
5.8278e-13
5.66226e-13
5.61066e-13
5.6198e-13
5.68602e-13
5.79635e-13
5.94272e-13
6.12046e-13
6.32577e-13
6.55615e-13
6.812e-13
7.08776e-13
7.39459e-13
7.70815e-13
8.08955e-13
8.41338e-13
8.95756e-13
9.19598e-13
1.00949e-12
1.01924e-12
1.1426e-12
1.18531e-12
1.31091e-12
1.45981e-12
1.62609e-12
1.92313e-12
2.47e-12
2.98232e-12
4.90517e-12
6.46423e-12
1.33764e-11
2.24174e-11
4.81107e-11
1.22865e-10
2.78578e-10
7.73659e-10
1.94016e-09
6.61791e-09
0.609368
0.0569673
0.00362463
0.00231033
0.00273376
0.00308753
0.00309369
0.00368027
0.00540684
0.00818655
0.0125744
0.0192633
0.0297189
0.0461622
0.0724146
0.0973424
0.125904
0.161809
0.193253
0.205903
0.210124
0.210639
0.207924
0.201849
0.198138
0.196128
0.192561
0.189905
0.186609
0.182224
0.176143
0.171032
0.16467
0.155121
0.139085
0.117584
0.0964403
0.0806387
0.0702792
0.0630741
0.0575372
0.0528773
0.0483665
0.0434093
0.0371505
0.0291862
0.0212646
0.0152492
0.0107678
0.00752775
0.00526185
0.00371708
0.00267728
0.00197578
0.0014945
0.0011551
0.000907976
0.000722462
0.000579628
0.000467541
0.000378405
0.000306893
0.000249184
0.000202428
0.000164458
0.000133577
0.000108425
8.79593e-05
7.13235e-05
5.77995e-05
4.68051e-05
3.78681e-05
3.06065e-05
2.47103e-05
1.99263e-05
1.60469e-05
1.29028e-05
1.03571e-05
8.29866e-06
6.63705e-06
5.29789e-06
4.22028e-06
3.35467e-06
2.66075e-06
2.10569e-06
1.66267e-06
1.30983e-06
1.02945e-06
8.07199e-07
6.31431e-07
4.92774e-07
3.83657e-07
2.97977e-07
2.30876e-07
1.78473e-07
1.37647e-07
1.05909e-07
8.12935e-08
6.22474e-08
4.75534e-08
3.62492e-08
2.75717e-08
2.09246e-08
1.58442e-08
1.19713e-08
9.02573e-09
6.79043e-09
5.09803e-09
3.81959e-09
2.85597e-09
2.13127e-09
1.5875e-09
1.18039e-09
8.76224e-10
6.49393e-10
4.80534e-10
3.55061e-10
2.61996e-10
1.93084e-10
1.42134e-10
1.04521e-10
7.67974e-11
5.63928e-11
4.13933e-11
3.03767e-11
2.22918e-11
1.63639e-11
1.20218e-11
8.84315e-12
6.51557e-12
4.80926e-12
3.5565e-12
2.63604e-12
1.9599e-12
1.46313e-12
1.09756e-12
8.27568e-13
6.27496e-13
4.78968e-13
3.68557e-13
2.86295e-13
2.24713e-13
1.78347e-13
1.43247e-13
1.16515e-13
9.61117e-14
8.04671e-14
6.84259e-14
5.90939e-14
5.18302e-14
4.61626e-14
4.17398e-14
3.83185e-14
3.56444e-14
3.37117e-14
3.20008e-14
3.10244e-14
3.00839e-14
2.97016e-14
2.93774e-14
3.04504e-14
3.04429e-14
3.28057e-14
3.54662e-14
3.97293e-14
5.04066e-14
6.60849e-14
9.7346e-14
1.84207e-13
3.20751e-13
8.8978e-13
1.72871e-12
4.79116e-12
1.23968e-11
3.0744e-11
9.05023e-11
2.25064e-10
5.85955e-10
1.52083e-09
3.83095e-09
0.726969
0.0837186
0.00480897
0.00222425
0.00243305
0.00308151
0.00363217
0.00573243
0.0122619
0.018195
0.0256852
0.0376125
0.0579468
0.0948282
0.122489
0.155667
0.187789
0.206772
0.212415
0.21315
0.211498
0.209343
0.209002
0.210432
0.216673
0.222951
0.225674
0.226035
0.217169
0.201373
0.188105
0.177947
0.169152
0.165532
0.157488
0.143892
0.123309
0.0999537
0.0800148
0.0671078
0.0593967
0.053987
0.0497182
0.0457909
0.0415594
0.0367363
0.0308171
0.0237325
0.0175019
0.0124719
0.00864877
0.00590982
0.0040352
0.00279155
0.00197802
0.00144334
0.00108405
0.000834231
0.000653855
0.000519118
0.000415741
0.000334863
0.00027071
0.000219331
0.0001779
0.000144259
0.000116878
9.4604e-05
7.64886e-05
6.17694e-05
4.98218e-05
4.0136e-05
3.22952e-05
2.59563e-05
2.08376e-05
1.67088e-05
1.33822e-05
1.07043e-05
8.54958e-06
6.81768e-06
5.42725e-06
4.31235e-06
3.41994e-06
2.70678e-06
2.138e-06
1.68525e-06
1.3255e-06
1.04026e-06
8.14583e-07
6.36423e-07
4.96102e-07
3.85823e-07
2.9937e-07
2.31759e-07
1.78997e-07
1.37929e-07
1.06052e-07
8.13566e-08
6.22608e-08
4.7535e-08
3.62133e-08
2.75264e-08
2.08753e-08
1.57971e-08
1.1929e-08
8.98893e-09
6.75935e-09
5.07254e-09
3.79901e-09
2.83938e-09
2.11783e-09
1.57659e-09
1.17156e-09
8.69103e-10
6.43657e-10
4.75924e-10
3.51379e-10
2.59085e-10
1.90808e-10
1.40367e-10
1.03151e-10
7.57297e-11
5.55557e-11
4.07346e-11
2.98582e-11
2.18838e-11
1.60431e-11
1.17698e-11
8.64591e-12
6.36188e-12
4.68986e-12
3.46361e-12
2.56344e-12
1.90273e-12
1.41769e-12
1.061e-12
7.97758e-13
6.02744e-13
4.57993e-13
3.50402e-13
2.70239e-13
2.10237e-13
1.65043e-13
1.30764e-13
1.04573e-13
8.44583e-14
6.89322e-14
5.68875e-14
4.74572e-14
4.00095e-14
3.40793e-14
2.93026e-14