/*--------------------------------*- C++ -*----------------------------------*\
| =========                 |                                                 |
| \\      /  F ield         | OpenFOAM: The Open Source CFD Toolbox           |
|  \\    /   O peration     | Version:  2.1.x                                 |
|   \\  /    A nd           | Web:      www.OpenFOAM.org                      |
|    \\/     M anipulation  |                                                 |
\*---------------------------------------------------------------------------*/
FoamFile
{
    version     2.0;
    format      ascii;
    class       volScalarField;
    location    "0.006";
    object      k_0;
}
// * * * * * * * * * * * * * * * * * * * * * * * * * * * * * * * * * * * * * //

dimensions      [0 2 -2 0 0 0 0];

internalField   nonuniform List<scalar> 
12225
(
9.30644
9.21943
6.90288
4.86115
3.81558
3.26492
2.91657
2.65719
2.42276
2.27477
2.13602
2.09086
1.97058
1.95515
1.86393
1.87694
1.81888
1.92415
2.46606
5.08954
5.39288
5.08763
4.5061
4.04031
3.65085
3.31818
3.02703
2.80554
2.59301
2.45852
2.30528
2.19989
2.10149
1.99174
1.93953
1.89063
0.199449
1.30973
1.9515
2.47165
2.58396
2.54466
2.43944
2.32578
2.25352
2.12768
2.01417
1.87284
1.80423
1.67979
1.62452
1.51089
1.43899
1.381
0.0100394
0.162906
0.3869
0.609251
0.79597
0.871462
0.881209
0.897429
0.95688
0.978097
0.976954
0.965069
0.952193
0.915869
0.865066
0.821273
0.742588
0.711055
0.000428021
0.0134628
0.0421426
0.0828783
0.148781
0.184501
0.192457
0.201966
0.228196
0.257752
0.278372
0.289246
0.295038
0.294035
0.290968
0.282855
0.24901
0.229933
4.05752e-05
0.000776036
0.00272642
0.0063047
0.0162045
0.0254402
0.0278832
0.0293165
0.0323794
0.0346712
0.0389195
0.0478715
0.0609623
0.0701315
0.0727666
0.0715131
0.0630438
0.0570001
2.5173e-05
7.09453e-05
0.000188542
0.000416724
0.00119093
0.00263061
0.00311569
0.00316154
0.00308347
0.00282793
0.0028688
0.00363753
0.00741647
0.0113397
0.0122999
0.0120611
0.0104762
0.00852997
2.88769e-05
3.62015e-05
4.04634e-05
5.265e-05
0.000112958
0.00032775
0.000430502
0.000434701
0.000399295
0.000324862
0.000316595
0.000371638
0.000760309
0.00140796
0.00162389
0.00160934
0.00138316
0.00113019
2.34739e-05
3.46996e-05
3.46575e-05
3.34281e-05
3.73392e-05
6.18339e-05
0.000100761
0.000123836
0.000130029
0.000130927
0.000133115
0.000141011
0.000174225
0.000270467
0.000323785
0.000329223
0.000308067
0.000294562
4.24143e-05
4.51598e-05
4.30709e-05
4.26545e-05
4.49621e-05
4.80691e-05
4.83994e-05
4.7613e-05
4.8367e-05
5.50744e-05
8.13499e-05
0.000133064
0.000169247
0.000187564
0.000195634
0.000195401
0.000178482
0.000143515
2.69049e-05
2.92596e-05
2.83863e-05
2.93446e-05
3.4801e-05
3.66027e-05
3.56322e-05
3.27187e-05
3.25423e-05
3.34389e-05
3.62421e-05
4.34811e-05
6.71559e-05
9.61539e-05
0.000112089
0.000114572
0.000112123
0.000114018
2.25484e-05
2.28233e-05
2.44315e-05
3.2867e-05
4.27948e-05
4.367e-05
4.12489e-05
3.90185e-05
3.9044e-05
3.86234e-05
3.78534e-05
3.93481e-05
5.10761e-05
6.77723e-05
7.49204e-05
7.69358e-05
7.69658e-05
7.30596e-05
2.34498e-05
2.58945e-05
2.56986e-05
2.59077e-05
2.71766e-05
3.06113e-05
3.2631e-05
3.27636e-05
3.18617e-05
3.09387e-05
3.12238e-05
3.3974e-05
3.83047e-05
4.05592e-05
4.1996e-05
4.38407e-05
4.3901e-05
4.5365e-05
2.20538e-05
2.23305e-05
2.37904e-05
2.52466e-05
2.5767e-05
2.63591e-05
2.94454e-05
3.98869e-05
4.52546e-05
4.56531e-05
4.41545e-05
3.79534e-05
3.2158e-05
2.92433e-05
2.80109e-05
2.78723e-05
2.90863e-05
3.19964e-05
2.19825e-05
2.92033e-05
3.24133e-05
3.24107e-05
3.04525e-05
2.81974e-05
2.72959e-05
2.70388e-05
2.71486e-05
2.8045e-05
3.07882e-05
3.2306e-05
3.27431e-05
3.27797e-05
3.26226e-05
3.28141e-05
3.44201e-05
4.14806e-05
2.14537e-05
2.74661e-05
2.99908e-05
2.93902e-05
2.67623e-05
2.49982e-05
2.48129e-05
2.5374e-05
2.81564e-05
3.07643e-05
3.13817e-05
3.12502e-05
3.0361e-05
2.98692e-05
2.92292e-05
2.88696e-05
3.02996e-05
6.70691e-05
2.11567e-05
2.55789e-05
3.16036e-05
3.1633e-05
2.92525e-05
2.70747e-05
2.64033e-05
2.60904e-05
2.60631e-05
2.61719e-05
2.65394e-05
2.6654e-05
2.66243e-05
2.63529e-05
2.63402e-05
2.74416e-05
2.9837e-05
3.82231e-05
2.55872e-05
3.32057e-05
3.31894e-05
3.33511e-05
3.46076e-05
3.45276e-05
3.24938e-05
3.01183e-05
2.9157e-05
2.8753e-05
2.86784e-05
2.93309e-05
3.35665e-05
3.91833e-05
4.21149e-05
4.29285e-05
4.20513e-05
4.24066e-05
2.06514e-05
2.469e-05
2.59266e-05
2.71793e-05
3.5547e-05
5.20901e-05
5.63003e-05
5.3814e-05
4.17831e-05
3.17681e-05
2.75863e-05
2.63077e-05
2.62722e-05
2.74389e-05
3.02951e-05
3.17228e-05
3.28701e-05
3.3964e-05
2.23586e-05
2.40394e-05
2.3566e-05
2.39351e-05
2.61382e-05
2.86978e-05
3.48662e-05
4.42986e-05
4.78854e-05
4.78852e-05
4.57315e-05
3.8353e-05
3.22778e-05
2.94171e-05
2.81723e-05
2.76323e-05
2.76219e-05
2.81098e-05
2.15805e-05
2.17505e-05
2.27369e-05
2.54247e-05
2.86701e-05
3.00872e-05
3.11568e-05
3.39991e-05
3.7063e-05
3.79476e-05
3.79267e-05
3.7681e-05
3.6685e-05
3.50041e-05
3.41536e-05
3.36674e-05
3.33971e-05
3.31614e-05
2.12278e-05
2.79905e-05
3.62539e-05
3.64044e-05
3.23767e-05
2.93703e-05
2.93033e-05
3.02424e-05
3.28628e-05
3.45003e-05
3.53497e-05
3.64319e-05
3.87101e-05
4.48538e-05
5.63206e-05
6.61373e-05
7.457e-05
7.80068e-05
2.67997e-05
4.36563e-05
4.16286e-05
3.39512e-05
3.18004e-05
3.27355e-05
3.78521e-05
5.1571e-05
6.08206e-05
6.49538e-05
6.81371e-05
7.38014e-05
8.63333e-05
0.000120762
0.000171812
0.000200108
0.00022572
0.000228111
2.96531e-05
3.33576e-05
3.44435e-05
4.37747e-05
6.91113e-05
0.000128188
0.000269776
0.000389107
0.000444495
0.000477372
0.000530265
0.000636279
0.000888748
0.00145828
0.00203035
0.00237638
0.00262111
0.0026367
2.36328e-05
5.93793e-05
0.000209788
0.000561026
0.000994374
0.00183717
0.00372311
0.0057862
0.00697781
0.00762794
0.00823416
0.00932489
0.0119159
0.0156055
0.0191398
0.0216192
0.0235443
0.024206
3.09546e-05
0.000868051
0.00449571
0.0115389
0.018241
0.0318697
0.0505546
0.0677876
0.0779058
0.0856998
0.0913236
0.0992839
0.108398
0.11888
0.126918
0.133934
0.13758
0.140701
0.000528354
0.0188169
0.0851892
0.157225
0.228763
0.313554
0.390402
0.442374
0.472237
0.490317
0.501215
0.511265
0.518879
0.525654
0.528194
0.528156
0.526946
0.523659
0.0234923
0.307009
0.895947
1.18793
1.40353
1.58304
1.68802
1.70071
1.69021
1.66272
1.61936
1.57327
1.51993
1.4711
1.41361
1.37219
1.31565
1.28328
0.668441
3.25625
4.36259
4.40929
4.27229
3.96869
3.63801
3.34112
3.081
2.85229
2.64912
2.46525
2.29847
2.14833
2.00836
1.8923
1.76626
1.69123
7.00431
9.83686
8.61078
6.45399
5.0278
4.0855
3.43602
2.97798
2.63656
2.37448
2.1577
1.97687
1.81425
1.67186
1.53652
1.41859
1.29905
1.20605
0.000331184
0.000569562
0.000921176
0.00158742
0.00269489
0.0043629
0.00669421
0.0097436
0.0135074
0.0179375
0.0229294
0.0283488
0.0340265
0.0397761
0.0454126
0.0507528
0.055638
0.0599213
0.0635218
0.0663566
0.0678582
0.0685468
0.0687376
0.0679706
0.0662993
0.0642016
0.0617864
0.0592302
0.0566503
0.0541709
0.0519034
0.0499465
0.0483875
0.0473279
0.0467941
0.0468296
0.0475682
0.0490521
0.0513552
0.0545407
0.0587154
0.06397
0.0703819
0.0780493
0.0870581
0.0974753
0.109356
0.122736
0.137625
0.154005
0.171829
0.191028
0.211504
0.233133
0.255769
0.279256
0.303429
0.328114
0.35313
0.378302
0.403466
0.428471
0.453172
0.477436
0.501152
0.524232
0.546594
0.56818
0.588938
0.608834
0.627888
0.646017
0.663271
0.679797
0.695276
0.709548
0.722928
0.735554
0.7475
0.758815
0.769537
0.779698
0.789338
0.798486
0.807161
0.815403
0.823246
0.830696
0.837771
0.844494
0.850892
0.856988
0.862807
0.868362
0.873668
0.87874
0.883594
0.888246
0.892707
0.896986
0.901096
0.905047
0.908851
0.912515
0.916047
0.919452
0.922739
0.925918
0.928994
0.931971
0.934851
0.937641
0.94035
0.942992
0.945556
0.948045
0.950462
0.952808
0.955089
0.957309
0.959472
0.961579
0.963631
0.965631
0.967581
0.969482
0.971336
0.973146
0.974913
0.976637
0.978317
0.979947
0.981538
0.98309
0.984606
0.986086
0.987528
0.988933
0.990301
0.991632
0.992927
0.994188
0.995414
0.996604
0.997757
0.998874
0.999954
1.001
1.00201
1.00298
1.00392
1.00481
1.00567
1.00648
1.00724
1.00796
1.00863
1.00925
1.0098
1.01029
1.01067
1.01102
1.01114
1.01143
1.01089
1.01162
1.00931
1.01125
1.00588
1.00981
1.00003
1.00618
0.991631
0.996239
0.980159
0.976923
0.962533
0.933482
0.924153
0.839812
0.00200195
0.000597139
0.000581499
0.000759857
0.00106161
0.00146526
0.00197028
0.0025572
0.00318892
0.00382177
0.00440555
0.00489002
0.00522993
0.00539394
0.00543821
0.00528605
0.00500014
0.00458177
0.00409015
0.00356807
0.00305548
0.0026222
0.00231979
0.00216917
0.0021784
0.00228674
0.00240114
0.00252599
0.00266103
0.00280475
0.00295729
0.00311686
0.00328314
0.0034564
0.00363824
0.0038308
0.00403654
0.00426032
0.00450724
0.00478118
0.00509139
0.00544721
0.00585541
0.00632753
0.00687408
0.00750698
0.00823876
0.00907997
0.0100429
0.0111402
0.0123847
0.0137888
0.0153644
0.0171227
0.0190738
0.0212265
0.0235878
0.0261638
0.0289582
0.031972
0.0352076
0.0386534
0.0423251
0.0461825
0.0502602
0.0545128
0.0589243
0.0635598
0.0682478
0.0731657
0.078174
0.0832014
0.0885009
0.0937258
0.0989524
0.10456
0.110426
0.116463
0.122601
0.128781
0.134973
0.141132
0.147247
0.153297
0.159258
0.165154
0.170938
0.176598
0.182138
0.187561
0.192876
0.198087
0.203201
0.208227
0.213174
0.21804
0.222833
0.227562
0.23223
0.236839
0.241395
0.245901
0.250361
0.25478
0.259162
0.263511
0.26783
0.272121
0.276389
0.280637
0.284867
0.289083
0.293288
0.297484
0.301673
0.305859
0.310042
0.314226
0.318413
0.322603
0.3268
0.331005
0.33522
0.339448
0.343689
0.347945
0.352216
0.356506
0.360814
0.365143
0.369494
0.373869
0.378266
0.382687
0.387132
0.391603
0.396102
0.40063
0.405185
0.409769
0.41438
0.41902
0.42369
0.428391
0.433124
0.437887
0.44268
0.447503
0.452356
0.457241
0.462158
0.467107
0.472088
0.477099
0.482142
0.487214
0.49232
0.497454
0.502626
0.50782
0.513064
0.518308
0.523643
0.52891
0.534387
0.539614
0.545343
0.55037
0.556627
0.561091
0.568266
0.572086
0.580704
0.583626
0.594233
0.595757
0.610109
0.610242
0.622232
0.660316
0.00710514
0.000792125
0.000522509
0.000520964
0.000562182
0.000623069
0.00069074
0.000758429
0.000817529
0.000854522
0.000868673
0.00086654
0.000835898
0.000794775
0.000747776
0.00069874
0.000660662
0.000636777
0.00062558
0.000634736
0.000665485
0.000716037
0.000785093
0.000870063
0.000970184
0.00107554
0.00118251
0.00128697
0.00138585
0.00147626
0.00155611
0.00162305
0.00167507
0.00170797
0.00172338
0.00172784
0.00171368
0.00168608
0.00164558
0.00159383
0.00153353
0.0014669
0.00139587
0.00132186
0.00124563
0.00116837
0.00109174
0.00102101
0.000957887
0.000903263
0.000857887
0.000822349
0.00079707
0.000782388
0.00077797
0.000785549
0.000805082
0.000836367
0.000879928
0.000936397
0.00100643
0.00109002
0.00118866
0.00130081
0.00143003
0.00157424
0.00173405
0.00191365
0.00210709
0.00231939
0.00255356
0.00279613
0.00306992
0.00334959
0.00365734
0.00397261
0.00431948
0.00468369
0.00506968
0.00548812
0.00591027
0.00637654
0.00684508
0.00733422
0.00786223
0.00836954
0.00892506
0.00953817
0.0101978
0.0108992
0.0116366
0.0124014
0.0131929
0.0140072
0.014835
0.0156726
0.0165174
0.0173686
0.018225
0.0190848
0.0199471
0.0208111
0.0216762
0.0225422
0.023409
0.0242765
0.0251449
0.0260142
0.0268848
0.027757
0.0286313
0.0295084
0.0303891
0.0312739
0.0321632
0.0330576
0.0339577
0.0348646
0.035779
0.0367017
0.0376332
0.0385744
0.0395262
0.0404895
0.0414652
0.0424542
0.043457
0.0444745
0.0455074
0.0465568
0.0476235
0.0487086
0.0498125
0.0509359
0.0520794
0.0532442
0.0544313
0.0556418
0.0568761
0.0581349
0.0594186
0.0607281
0.0620645
0.0634292
0.064823
0.0662464
0.0676999
0.0691842
0.0707002
0.0722492
0.0738326
0.0754514
0.0771065
0.0787987
0.080529
0.0822981
0.0841105
0.0859594
0.0878675
0.0897892
0.0918314
0.0937773
0.0960695
0.097883
0.100683
0.10212
0.1056
0.106923
0.110869
0.112029
0.116878
0.117813
0.123587
0.124603
0.131403
0.133068
0.142169
0.14523
0.154096
0.190756
0.0192825
0.00131476
0.000552451
0.000518234
0.000524207
0.000535452
0.000543084
0.000549617
0.000554035
0.000556643
0.000558656
0.000562329
0.000569394
0.000583143
0.000604639
0.000636653
0.000679963
0.00074323
0.0008297
0.00094152
0.00107785
0.00123696
0.00141614
0.00160916
0.00181092
0.0020111
0.0021995
0.00236825
0.00250841
0.00261849
0.00268598
0.00271723
0.00272639
0.00269458
0.00263218
0.00254273
0.00243269
0.0023061
0.00216816
0.00202185
0.00187262
0.0017246
0.00158051
0.00144161
0.00130997
0.00118697
0.00107301
0.000966535
0.000867414
0.000775771
0.00069159
0.000614715
0.000544835
0.000481572
0.000424615
0.000373692
0.000328435
0.00028834
0.000252712
0.00022077
0.000192308
0.000167553
0.000146218
0.000127985
0.000112689
9.99439e-05
8.94234e-05
8.1031e-05
7.45744e-05
6.97162e-05
6.64402e-05
6.4352e-05
6.37991e-05
6.40255e-05
6.56257e-05
6.78085e-05
7.11285e-05
7.50631e-05
7.99703e-05
8.55134e-05
9.18776e-05
9.90798e-05
0.000106736
0.000115644
0.000124602
0.000134824
0.000145847
0.00015649
0.000170029
0.000183864
0.000197517
0.000215547
0.000232768
0.000249832
0.000273252
0.000302422
0.000336792
0.000375823
0.000418691
0.000464729
0.000513409
0.000564286
0.000617002
0.000671273
0.000726858
0.000783562
0.000841227
0.000899728
0.000958962
0.00101884
0.00107933
0.0011404
0.00120206
0.00126429
0.00132707
0.00139039
0.00145427
0.00151879
0.00158398
0.0016499
0.00171659
0.00178411
0.00185252
0.00192192
0.0019924
0.00206405
0.00213696
0.00221121
0.00228689
0.00236411
0.00244298
0.00252362
0.00260614
0.00269062
0.00277717
0.00286593
0.00295706
0.00305071
0.00314699
0.00324601
0.00334786
0.00345269
0.0035607
0.00367209
0.00378705
0.00390569
0.00402813
0.00415454
0.0042851
0.00442007
0.00455975
0.00470437
0.00485414
0.00500928
0.00517021
0.00533672
0.00551079
0.00568892
0.00588072
0.00606687
0.00628958
0.00646746
0.00675415
0.00688981
0.00727565
0.00739073
0.00784102
0.00795701
0.00855234
0.00862118
0.00944335
0.00944808
0.0105419
0.0105786
0.0119268
0.0122256
0.014188
0.014994
0.0172141
0.0268506
0.0448635
0.00240117
0.000618104
0.000549985
0.000549348
0.000558066
0.000569927
0.000578377
0.000588118
0.000603024
0.000625664
0.000658978
0.000708678
0.000779084
0.000876899
0.00100769
0.00118201
0.00140063
0.0016663
0.00198302
0.00235371
0.00277657
0.00324473
0.00374242
0.00425046
0.00472226
0.00512256
0.00544218
0.00563926
0.00573208
0.00575965
0.00566402
0.00549877
0.00527466
0.0049878
0.00465523
0.00429913
0.00393154
0.00356602
0.00321139
0.00287723
0.00256773
0.00228397
0.00202588
0.00179239
0.00158228
0.00139397
0.00122569
0.00107566
0.000942156
0.000823558
0.000718396
0.000625375
0.000543281
0.000470899
0.000407075
0.000350863
0.000301586
0.000258743
0.000221807
0.000190005
0.000162459
0.000138573
0.000117892
0.000100035
8.46538e-05
7.14417e-05
6.01305e-05
5.04803e-05
4.22666e-05
3.53021e-05
2.94206e-05
2.44827e-05
2.03283e-05
1.68448e-05
1.39402e-05
1.15356e-05
9.55657e-06
7.93958e-06
6.62021e-06
5.56316e-06
4.71612e-06
4.04089e-06
3.53167e-06
3.12799e-06
2.83013e-06
2.63576e-06
2.48637e-06
2.40355e-06
2.39415e-06
2.39093e-06
2.44141e-06
2.55986e-06
2.65988e-06
2.77219e-06
3.01565e-06
3.26695e-06
3.49552e-06
3.94614e-06
4.63401e-06
5.52642e-06
6.59485e-06
7.81734e-06
9.17572e-06
1.06546e-05
1.22408e-05
1.39232e-05
1.5692e-05
1.75384e-05
1.94545e-05
2.14337e-05
2.34709e-05
2.55612e-05
2.76998e-05
2.98814e-05
3.21018e-05
3.43585e-05
3.66505e-05
3.89772e-05
4.13377e-05
4.37306e-05
4.61553e-05
4.86126e-05
5.11046e-05
5.36343e-05
5.62041e-05
5.88164e-05
6.14731e-05
6.41767e-05
6.69304e-05
6.97389e-05
7.26072e-05
7.55396e-05
7.85395e-05
8.16114e-05
8.47612e-05
8.79955e-05
9.13203e-05
9.47416e-05
9.82644e-05
0.000101894
0.000105636
0.000109501
0.000113498
0.000117637
0.000121921
0.00012636
0.000130961
0.000135735
0.000140696
0.000145858
0.000151235
0.000156841
0.000162684
0.000168805
0.000175162
0.000181947
0.000188792
0.000196633
0.00020357
0.00021364
0.000219222
0.000234053
0.000236869
0.000256706
0.000259849
0.000284423
0.000286255
0.000322253
0.000320912
0.000374073
0.000369565
0.000447959
0.000448302
0.000550692
0.000582153
0.000747217
0.00084774
0.00108315
0.00233373
0.0865907
0.00503618
0.000938753
0.000659165
0.000647103
0.000651224
0.000646618
0.00067835
0.000726971
0.000788957
0.000872199
0.000992302
0.00115117
0.00136899
0.00165682
0.00203834
0.00252695
0.0031525
0.00392926
0.00487884
0.0060031
0.00728362
0.0086704
0.0100776
0.0114223
0.0125569
0.013398
0.0138807
0.014072
0.0140297
0.0136987
0.0131128
0.0124528
0.0116452
0.0107286
0.0097115
0.00866788
0.0076208
0.00661851
0.00569012
0.00485743
0.00413063
0.00350826
0.00298172
0.00253831
0.00216563
0.00185163
0.00158594
0.0013601
0.00116735
0.00100233
0.000860665
0.000738762
0.000633712
0.000543166
0.000465166
0.000397979
0.000340053
0.000290056
0.000246911
0.000209744
0.000177803
0.000150415
0.000126976
0.000106952
8.98768e-05
7.5347e-05
6.30083e-05
5.25542e-05
4.37211e-05
3.62755e-05
3.00109e-05
2.47535e-05
2.03618e-05
1.67082e-05
1.36739e-05
1.11599e-05
9.08242e-06
7.37049e-06
5.96387e-06
4.81201e-06
3.87165e-06
3.10636e-06
2.48594e-06
1.98416e-06
1.57961e-06
1.2549e-06
9.94805e-07
7.87385e-07
6.22861e-07
4.92062e-07
3.89084e-07
3.08652e-07
2.45049e-07
1.95995e-07
1.58305e-07
1.28875e-07
1.0757e-07
9.14084e-08
7.95159e-08
7.49595e-08
7.50099e-08
8.25629e-08
9.62691e-08
1.15062e-07
1.38503e-07
1.66212e-07
1.97868e-07
2.33183e-07
2.71895e-07
3.13768e-07
3.58589e-07
4.06152e-07
4.56247e-07
5.08642e-07
5.63128e-07
6.19529e-07
6.77714e-07
7.3756e-07
7.98953e-07
8.61749e-07
9.25827e-07
9.91124e-07
1.05762e-06
1.12533e-06
1.19426e-06
1.2644e-06
1.33575e-06
1.40831e-06
1.48212e-06
1.55727e-06
1.63388e-06
1.71205e-06
1.79185e-06
1.87337e-06
1.95676e-06
2.04216e-06
2.12973e-06
2.21965e-06
2.31207e-06
2.40715e-06
2.50505e-06
2.60601e-06
2.71029e-06
2.81816e-06
2.92977e-06
3.04537e-06
3.16522e-06
3.28965e-06
3.41908e-06
3.55387e-06
3.69449e-06
3.84145e-06
3.99482e-06
4.15655e-06
4.32401e-06
4.50656e-06
4.68534e-06
4.90628e-06
5.07607e-06
5.38728e-06
5.48794e-06
5.97328e-06
6.01432e-06
6.6165e-06
6.67903e-06
7.50391e-06
7.51348e-06
8.74777e-06
8.69105e-06
1.06263e-05
1.05451e-05
1.34825e-05
1.38922e-05
1.80389e-05
2.02792e-05
2.78486e-05
3.58018e-05
5.03519e-05
0.000153634
0.15973
0.00822389
0.00098489
0.000744009
0.00073936
0.000793627
0.000988116
0.00107162
0.00110103
0.00121756
0.00140516
0.00168949
0.00211081
0.00268265
0.00347212
0.00453134
0.00596668
0.00782007
0.0101802
0.0130444
0.0163841
0.0200506
0.023786
0.0272885
0.0302986
0.0325416
0.0336611
0.0340846
0.0337892
0.0328643
0.0316047
0.0297281
0.0280553
0.0259551
0.0237728
0.0213385
0.0188562
0.0163128
0.0138411
0.0115183
0.00943435
0.00764449
0.00616035
0.00496011
0.00400644
0.00325591
0.00266542
0.00219791
0.00182405
0.00152163
0.00127432
0.00107021
0.000900567
0.000758808
0.000639841
0.000539678
0.000455173
0.0003838
0.00032348
0.000272471
0.000229315
0.000192796
0.000161894
0.000135753
0.00011365
9.49788e-05
7.92254e-05
6.5954e-05
5.479e-05
4.54129e-05
3.75518e-05
3.09766e-05
2.54897e-05
2.09209e-05
1.71253e-05
1.39804e-05
1.13819e-05
9.24091e-06
7.48177e-06
6.04052e-06
4.86321e-06
3.90451e-06
3.12602e-06
2.49565e-06
1.98678e-06
1.57734e-06
1.24891e-06
9.86197e-07
7.76635e-07
6.09959e-07
4.77761e-07
3.73229e-07
2.90824e-07
2.26019e-07
1.75203e-07
1.35473e-07
1.045e-07
8.04305e-08
6.17689e-08
4.73467e-08
3.62301e-08
2.76829e-08
2.11852e-08
1.63002e-08
1.26799e-08
1.00561e-08
8.21434e-09
7.01097e-09
6.26863e-09
5.99266e-09
5.97667e-09
6.23496e-09
6.71677e-09
7.37492e-09
8.17796e-09
9.10339e-09
1.01335e-08
1.12547e-08
1.24558e-08
1.37279e-08
1.50627e-08
1.64531e-08
1.7894e-08
1.93817e-08
2.09137e-08
2.24875e-08
2.41009e-08
2.57515e-08
2.74375e-08
2.91581e-08
3.09144e-08
3.27075e-08
3.45389e-08
3.64093e-08
3.83194e-08
4.02717e-08
4.22688e-08
4.43139e-08
4.64114e-08
4.85648e-08
5.0778e-08
5.30544e-08
5.53987e-08
5.78162e-08
6.0314e-08
6.28955e-08
6.5568e-08
6.83382e-08
7.12142e-08
7.42067e-08
7.73224e-08
8.05743e-08
8.39779e-08
8.75297e-08
9.12968e-08
9.51789e-08
9.95002e-08
1.03587e-07
1.09044e-07
1.12622e-07
1.20858e-07
1.22233e-07
1.35067e-07
1.3591e-07
1.50959e-07
1.5245e-07
1.74281e-07
1.75064e-07
2.08073e-07
2.08727e-07
2.61512e-07
2.66395e-07
3.48526e-07
3.77934e-07
5.08854e-07
6.17114e-07
8.74837e-07
1.31838e-06
2.04753e-06
8.70027e-06
0.226691
0.014521
0.0015766
0.00114101
0.00117562
0.00120168
0.00112268
0.00124519
0.0014942
0.00186468
0.00241782
0.00310315
0.00410244
0.00556747
0.00766004
0.0105733
0.0144344
0.0194475
0.0256294
0.0330047
0.041326
0.0500043
0.0578515
0.0647925
0.0696456
0.0718395
0.0725366
0.0714376
0.0689048
0.0655316
0.0626517
0.0583044
0.0550767
0.0507708
0.0467273
0.0423446
0.0379396
0.033327
0.0286397
0.0239192
0.01938
0.015296
0.0118661
0.00910824
0.00696495
0.00534665
0.0041421
0.00324766
0.00257889
0.00207216
0.00168173
0.00137568
0.00113196
0.000935294
0.000775004
0.000643432
0.000534911
0.000445094
0.000370551
0.000308551
0.000256901
0.000213835
0.000177903
0.000147907
0.000122856
0.000101935
8.44703e-05
6.98972e-05
5.77446e-05
4.76194e-05
3.91942e-05
3.21947e-05
2.63893e-05
2.15826e-05
1.761e-05
1.43342e-05
1.16392e-05
9.42735e-06
7.61627e-06
6.1371e-06
4.93227e-06
3.95356e-06
3.16063e-06
2.51997e-06
2.00376e-06
1.58904e-06
1.25684e-06
9.91438e-07
7.80019e-07
6.12053e-07
4.78989e-07
3.73894e-07
2.91107e-07
2.26057e-07
1.75098e-07
1.35292e-07
1.04275e-07
8.01735e-08
6.14952e-08
4.7054e-08
3.59193e-08
2.73585e-08
2.07914e-08
1.57652e-08
1.19279e-08
9.00688e-09
6.78935e-09
5.11093e-09
3.84431e-09
2.89241e-09
2.1792e-09
1.64775e-09
1.25434e-09
9.65528e-10
7.55926e-10
6.06112e-10
5.01618e-10
4.31117e-10
3.8655e-10
3.61267e-10
3.51142e-10
3.51437e-10
3.60631e-10
3.76222e-10
3.96746e-10
4.21154e-10
4.48645e-10
4.78615e-10
5.10629e-10
5.4437e-10
5.79633e-10
6.16268e-10
6.54175e-10
6.93271e-10
7.335e-10
7.74855e-10
8.17343e-10
8.6099e-10
9.05865e-10
9.52029e-10
9.99555e-10
1.04849e-09
1.09892e-09
1.15092e-09
1.20465e-09
1.26019e-09
1.31772e-09
1.3774e-09
1.43939e-09
1.50394e-09
1.57116e-09
1.64135e-09
1.71493e-09
1.79174e-09
1.87363e-09
1.95763e-09
2.053e-09
2.14014e-09
2.2651e-09
2.33538e-09
2.53225e-09
2.5529e-09
2.84384e-09
2.87077e-09
3.21401e-09
3.25722e-09
3.76357e-09
3.82115e-09
4.58926e-09
4.71163e-09
5.98381e-09
6.36275e-09
8.51815e-09
9.80662e-09
1.37006e-08
1.87168e-08
2.71228e-08
4.6889e-08
8.39061e-08
4.81835e-07
0.355871
0.0239057
0.00195193
0.00111747
0.00112405
0.00129311
0.00157392
0.0023797
0.00276672
0.00324122
0.0040571
0.00568095
0.00811896
0.0117002
0.0167726
0.0237555
0.0330899
0.0456189
0.0601674
0.0742897
0.0898248
0.105226
0.119573
0.127662
0.130777
0.13139
0.127573
0.121187
0.115269
0.107397
0.102881
0.0953378
0.0896929
0.0817951
0.0747647
0.0681305
0.0619997
0.056222
0.0506135
0.0445774
0.037734
0.0302637
0.0232207
0.0175243
0.0129414
0.00948929
0.00696802
0.00516162
0.00387675
0.00296084
0.00230048
0.00181537
0.00145087
0.00117075
0.000951237
0.000776581
0.00063608
0.000522167
0.000429292
0.000353285
0.000290927
0.000239677
0.00019749
0.000162715
0.000134023
0.000110338
9.07803e-05
7.4625e-05
6.12776e-05
5.02527e-05
4.11527e-05
3.36482e-05
2.74648e-05
2.23751e-05
1.81918e-05
1.47598e-05
1.19496e-05
9.65267e-06
7.77905e-06
6.25405e-06
5.01588e-06
4.01301e-06
3.20263e-06
2.54941e-06
2.02423e-06
1.60318e-06
1.26652e-06
9.97975e-07
7.84351e-07
6.14868e-07
4.8078e-07
3.75005e-07
2.91762e-07
2.26423e-07
1.75279e-07
1.35349e-07
1.04262e-07
8.01285e-08
6.14364e-08
4.699e-08
3.58546e-08
2.72965e-08
2.0734e-08
1.57139e-08
1.1883e-08
8.96654e-09
6.75139e-09
5.07299e-09
3.80437e-09
2.84757e-09
2.12739e-09
1.58648e-09
1.18114e-09
8.781e-10
6.52025e-10
4.837e-10
3.58619e-10
2.65852e-10
1.97217e-10
1.46561e-10
1.09288e-10
8.19587e-11
6.20039e-11
4.75005e-11
3.70224e-11
2.95149e-11
2.41994e-11
2.05014e-11
1.79942e-11
1.63729e-11
1.53797e-11
1.48953e-11
1.47291e-11
1.48359e-11
1.51491e-11
1.56112e-11
1.61883e-11
1.68574e-11
1.76019e-11
1.84105e-11
1.92755e-11
2.0191e-11
2.11532e-11
2.21601e-11
2.32122e-11
2.43092e-11
2.54539e-11
2.66485e-11
2.78945e-11
2.9197e-11
3.05575e-11
3.19814e-11
3.34798e-11
3.50459e-11
3.67263e-11
3.84428e-11
4.04289e-11
4.21884e-11
4.48738e-11
4.62009e-11
5.05348e-11
5.09189e-11
5.70293e-11
5.78474e-11
6.52457e-11
6.67136e-11
7.75628e-11
8.06313e-11
9.82266e-11
1.05308e-10
1.3943e-10
1.5742e-10
2.3185e-10
2.92167e-10
4.30734e-10
7.75786e-10
1.2707e-09
2.62317e-09
5.85544e-09
3.54982e-08
0.479621
0.0361616
0.00224284
0.00125424
0.00163025
0.0021564
0.00280009
0.00298477
0.00366453
0.00500127
0.00751708
0.0114049
0.0165601
0.0240354
0.0353547
0.0525748
0.0735452
0.0913673
0.115303
0.143068
0.170455
0.181408
0.185579
0.1866
0.184207
0.176845
0.171625
0.166606
0.158861
0.150239
0.144719
0.137428
0.128979
0.114145
0.100355
0.0883618
0.0780958
0.0701692
0.0635167
0.0579244
0.0529768
0.0474889
0.0405878
0.0321117
0.0237543
0.0171603
0.0122688
0.00874187
0.00624738
0.00451139
0.00331332
0.00248409
0.00190181
0.00148326
0.00117397
0.000939235
0.000757075
0.000613323
0.000498525
0.000406102
0.000331277
0.000270468
0.000220921
0.000180483
0.000147451
0.000120451
9.8368e-05
8.02957e-05
6.55017e-05
5.33919e-05
4.34807e-05
3.53695e-05
2.87327e-05
2.3306e-05
1.88738e-05
1.52585e-05
1.23131e-05
9.91646e-06
7.9695e-06
6.391e-06
5.11404e-06
4.08302e-06
3.25227e-06
2.58441e-06
2.04875e-06
1.62025e-06
1.27827e-06
1.00597e-06
7.89722e-07
6.18437e-07
4.83121e-07
3.765e-07
2.92683e-07
2.26964e-07
1.75579e-07
1.35497e-07
1.04312e-07
8.01171e-08
6.13902e-08
4.69308e-08
3.57945e-08
2.72392e-08
2.06816e-08
1.56672e-08
1.18429e-08
8.93264e-09
6.72313e-09
5.04965e-09
3.78514e-09
2.83172e-09
2.11436e-09
1.57578e-09
1.17232e-09
8.70708e-10
6.45688e-10
4.78114e-10
3.53534e-10
2.61071e-10
1.92552e-10
1.41857e-10
1.04414e-10
7.6806e-11
5.64801e-11
4.15318e-11
3.05471e-11
2.24809e-11
1.65639e-11
1.22282e-11
9.0544e-12
6.73215e-12
5.03232e-12
3.78854e-12
2.87756e-12
2.21211e-12
1.72719e-12
1.37468e-12
1.11912e-12
9.34668e-13
8.02596e-13
7.09275e-13
6.4469e-13
6.01424e-13
5.74081e-13
5.57652e-13
5.52307e-13
5.53112e-13
5.59504e-13
5.70249e-13
5.84554e-13
6.01956e-13
6.22076e-13
6.44671e-13
6.69771e-13
6.96842e-13
7.26949e-13
7.57767e-13
7.95155e-13
8.2709e-13
8.80314e-13
9.041e-13
9.92008e-13
1.00172e-12
1.12329e-12
1.16503e-12
1.28852e-12
1.43576e-12
1.59796e-12
1.89406e-12
2.4286e-12
2.93807e-12
4.8351e-12
6.38831e-12
1.326e-11
2.22514e-11
4.79468e-11
1.22513e-10
2.78207e-10
7.737e-10
1.93953e-09
6.60864e-09
0.609355
0.0568155
0.00362576
0.00230648
0.00271445
0.00307855
0.00309243
0.00368271
0.00542547
0.00822375
0.0126231
0.0193261
0.0298346
0.0463484
0.0726808
0.0976295
0.125746
0.161001
0.192914
0.20616
0.21061
0.21124
0.208756
0.202682
0.198683
0.196505
0.19273
0.189788
0.186363
0.181991
0.175939
0.170826
0.164406
0.15434
0.137674
0.115999
0.0951926
0.0799323
0.0698399
0.0627896
0.0573321
0.0527047
0.0481751
0.0431417
0.0367492
0.0286682
0.0208148
0.0148972
0.0105031
0.00733785
0.00513078
0.00362889
0.00261849
0.00193629
0.00146737
0.00113586
0.000893845
0.000711765
0.000571335
0.000461002
0.000373191
0.000302703
0.000245802
0.00019969
0.000162237
0.000131773
0.000106962
8.67755e-05
7.03655e-05
5.70244e-05
4.61782e-05
3.73614e-05
3.01972e-05
2.438e-05
1.966e-05
1.58323e-05
1.27301e-05
1.02181e-05
8.18714e-06
6.54766e-06
5.22637e-06
4.16317e-06
3.30915e-06
2.62454e-06
2.07695e-06
1.63992e-06
1.29185e-06
1.01528e-06
7.96063e-07
6.22697e-07
4.85941e-07
3.78325e-07
2.93827e-07
2.27654e-07
1.75977e-07
1.35719e-07
1.04423e-07
8.01512e-08
6.13715e-08
4.68835e-08
3.57382e-08
2.71828e-08
2.06292e-08
1.56204e-08
1.18022e-08
8.8982e-09
6.69449e-09
5.02601e-09
3.76565e-09
2.81566e-09
2.10121e-09
1.56513e-09
1.16378e-09
8.63917e-10
6.40289e-10
4.73811e-10
3.50104e-10
2.58348e-10
1.90403e-10
1.40167e-10
1.0308e-10
7.57426e-11
5.56217e-11
4.083e-11
2.99656e-11
2.19919e-11
1.61453e-11
1.18625e-11
8.72697e-12
6.43078e-12
4.7473e-12
3.51118e-12
2.60285e-12
1.93555e-12
1.44522e-12
1.08434e-12
8.17761e-13
6.20191e-13
4.73499e-13
3.64437e-13
2.83163e-13
2.22307e-13
1.76476e-13
1.41771e-13
1.15331e-13
9.51455e-14
7.96636e-14
6.77438e-14
5.85021e-14
5.13053e-14
4.56865e-14
4.12993e-14
3.79025e-14
3.52472e-14
3.33224e-14
3.16192e-14
3.06448e-14
2.9697e-14
2.93062e-14
2.89839e-14
3.00179e-14
3.00096e-14
3.23337e-14
3.49553e-14
3.91705e-14
4.97512e-14
6.52428e-14
9.64161e-14
1.82343e-13
3.19135e-13
8.84829e-13
1.72413e-12
4.79177e-12
1.23856e-11
3.07607e-11
9.05583e-11
2.25131e-10
5.86658e-10
1.52253e-09
3.83413e-09
0.727672
0.0833972
0.00479681
0.00221495
0.00241786
0.00307333
0.00363835
0.0057461
0.0123191
0.018264
0.0257826
0.0377879
0.0582899
0.0954468
0.122978
0.155761
0.1873
0.206818
0.212788
0.213663
0.212192
0.209866
0.209456
0.210686
0.216559
0.222608
0.225249
0.225172
0.216272
0.201164
0.188121
0.178403
0.169638
0.165883
0.157524
0.14358
0.122454
0.0988504
0.0791993
0.066653
0.0591541
0.0538328
0.0495924
0.0456548
0.0413645
0.0364749
0.0304151
0.0232896
0.0171148
0.012159
0.00841665
0.00574764
0.00392697
0.0027213
0.00193277
0.00141384
0.00106423
0.000820377
0.000643778
0.000511534
0.000409883
0.000330255
0.000267041
0.000216385
0.000175519
0.000142325
0.000115306
9.33274e-05
7.54534e-05
6.09315e-05
4.91446e-05
3.95897e-05
3.18553e-05
2.56026e-05
2.05538e-05
1.64814e-05
1.32001e-05
1.05587e-05
8.43316e-06
6.72474e-06
5.35316e-06
4.25339e-06
3.37309e-06
2.66963e-06
2.1086e-06
1.66203e-06
1.3072e-06
1.02587e-06
8.03285e-07
6.27578e-07
4.89193e-07
3.80439e-07
2.95185e-07
2.28513e-07
1.76486e-07
1.35991e-07
1.0456e-07
8.02108e-08
6.13828e-08
4.6864e-08
3.57017e-08
2.71372e-08
2.058e-08
1.55736e-08
1.17602e-08
8.86173e-09
6.66372e-09
5.0008e-09
3.7453e-09
2.79926e-09
2.08793e-09
1.55435e-09
1.15506e-09
8.56876e-10
6.34618e-10
4.69254e-10
3.46466e-10
2.55472e-10
1.88154e-10
1.38422e-10
1.01726e-10
7.46878e-11
5.47945e-11
4.01791e-11
2.94531e-11
2.15887e-11
1.58282e-11
1.16134e-11
8.53202e-12
6.27889e-12
4.62931e-12
3.41939e-12
2.53112e-12
1.87907e-12
1.40033e-12
1.04822e-12
7.88314e-13
5.95746e-13
4.52793e-13
3.46522e-13
2.67328e-13
2.08038e-13
1.63369e-13
1.2948e-13
1.0358e-13
8.36845e-14
6.83247e-14
5.64065e-14
4.70723e-14
3.96982e-14
3.38243e-14
2.90918e-14
2.52966e-14
2.22185e-14
1.9742e-14