/*--------------------------------*- C++ -*----------------------------------*\
| =========                 |                                                 |
| \\      /  F ield         | OpenFOAM: The Open Source CFD Toolbox           |
|  \\    /   O peration     | Version:  2.1.x                                 |
|   \\  /    A nd           | Web:      www.OpenFOAM.org                      |
|    \\/     M anipulation  |                                                 |
\*---------------------------------------------------------------------------*/
FoamFile
{
    version     2.0;
    format      ascii;
    class       volScalarField;
    location    "0.006";
    object      nuSgs;
}
// * * * * * * * * * * * * * * * * * * * * * * * * * * * * * * * * * * * * * //

dimensions      [0 2 -1 0 0 0 0];

internalField   nonuniform List<scalar> 
12225
(
0.000201874
0.000197083
0.000167097
0.000137361
0.000119199
0.000108
0.000100021
9.35719e-05
8.75499e-05
8.31074e-05
7.888e-05
7.64708e-05
7.27474e-05
7.09974e-05
6.79203e-05
6.67602e-05
6.43481e-05
6.48825e-05
0.000109179
0.000153724
0.000155048
0.000147547
0.000136039
0.000126181
0.000117528
0.000109801
0.000102756
9.69378e-05
9.13019e-05
8.7109e-05
8.2649e-05
7.91025e-05
7.57714e-05
7.22587e-05
6.98527e-05
6.75925e-05
3.25649e-05
8.18327e-05
9.79286e-05
0.000108012
0.000108236
0.000105244
0.000100947
9.65157e-05
9.30746e-05
8.86483e-05
8.45251e-05
7.98558e-05
7.67953e-05
7.26038e-05
6.99751e-05
6.6126e-05
6.32141e-05
6.06841e-05
7.68702e-06
3.03131e-05
4.5838e-05
5.62868e-05
6.30764e-05
6.47801e-05
6.38143e-05
6.30082e-05
6.36111e-05
6.30703e-05
6.177e-05
6.01618e-05
5.85736e-05
5.63588e-05
5.36807e-05
5.12812e-05
4.77692e-05
4.57655e-05
1.65808e-06
9.16801e-06
1.59704e-05
2.1763e-05
2.86092e-05
3.13548e-05
3.13942e-05
3.14515e-05
3.26168e-05
3.39542e-05
3.4586e-05
3.45568e-05
3.42309e-05
3.34915e-05
3.2661e-05
3.15992e-05
2.91744e-05
2.73542e-05
5.3447e-07
2.31912e-06
4.269e-06
6.30963e-06
9.84618e-06
1.22238e-05
1.25824e-05
1.26282e-05
1.29849e-05
1.31347e-05
1.35502e-05
1.46195e-05
1.61933e-05
1.71079e-05
1.7153e-05
1.66961e-05
1.54463e-05
1.43596e-05
4.48102e-07
7.38957e-07
1.18043e-06
1.70541e-06
2.7704e-06
4.11524e-06
4.42557e-06
4.3785e-06
4.24347e-06
3.96916e-06
3.88971e-06
4.20407e-06
5.7781e-06
7.18311e-06
7.40976e-06
7.21012e-06
6.64434e-06
5.88586e-06
4.18997e-07
4.65018e-07
4.83773e-07
5.37213e-07
7.55119e-07
1.26974e-06
1.45077e-06
1.43367e-06
1.35442e-06
1.19091e-06
1.14294e-06
1.19387e-06
1.61697e-06
2.22624e-06
2.37797e-06
2.32876e-06
2.13881e-06
1.88397e-06
4.06415e-07
4.91745e-07
4.83638e-07
4.6381e-07
4.75752e-07
5.90249e-07
7.46716e-07
8.16977e-07
8.22892e-07
8.08916e-07
7.98447e-07
8.02678e-07
8.61742e-07
1.05253e-06
1.14518e-06
1.13697e-06
1.08172e-06
1.03042e-06
5.96156e-07
6.06007e-07
5.79867e-07
5.63677e-07
5.64364e-07
5.73206e-07
5.64675e-07
5.48818e-07
5.40518e-07
5.60712e-07
6.56594e-07
8.3164e-07
9.27136e-07
9.60955e-07
9.65125e-07
9.47266e-07
8.94944e-07
7.82492e-07
5.13786e-07
5.25855e-07
5.07244e-07
5.04031e-07
5.3611e-07
5.40988e-07
5.24302e-07
4.92073e-07
4.79837e-07
4.75868e-07
4.84e-07
5.15278e-07
6.19884e-07
7.35394e-07
7.8539e-07
7.81134e-07
7.5811e-07
7.4889e-07
5.08118e-07
5.00483e-07
5.06456e-07
5.71166e-07
6.44148e-07
6.40038e-07
6.11052e-07
5.8049e-07
5.68706e-07
5.54768e-07
5.37109e-07
5.33698e-07
5.86633e-07
6.68422e-07
6.9308e-07
6.90026e-07
6.77977e-07
6.52009e-07
5.58005e-07
5.7546e-07
5.62323e-07
5.5286e-07
5.53773e-07
5.75613e-07
5.8409e-07
5.74145e-07
5.55332e-07
5.34978e-07
5.25402e-07
5.33817e-07
5.56583e-07
5.62377e-07
5.60795e-07
5.62307e-07
5.53021e-07
5.47302e-07
5.90327e-07
5.77202e-07
5.82291e-07
5.88735e-07
5.83337e-07
5.77637e-07
5.94302e-07
6.76068e-07
7.11233e-07
7.01635e-07
6.78031e-07
6.19927e-07
5.5749e-07
5.1919e-07
4.96607e-07
4.84751e-07
4.84004e-07
5.02623e-07
6.29902e-07
7.10223e-07
7.3746e-07
7.24075e-07
6.89163e-07
6.47608e-07
6.23015e-07
6.06958e-07
5.95591e-07
5.91813e-07
6.06874e-07
6.10641e-07
6.03071e-07
5.91426e-07
5.78186e-07
5.68061e-07
5.68833e-07
6.21183e-07
6.71801e-07
7.47183e-07
7.67975e-07
7.45477e-07
6.96999e-07
6.57583e-07
6.40918e-07
6.33948e-07
6.52143e-07
6.70126e-07
6.64473e-07
6.50055e-07
6.2845e-07
6.10612e-07
5.92482e-07
5.75562e-07
5.79679e-07
7.82256e-07
7.24369e-07
7.76278e-07
8.51473e-07
8.36406e-07
7.88502e-07
7.39841e-07
7.14612e-07
6.95678e-07
6.81164e-07
6.68626e-07
6.59636e-07
6.47986e-07
6.34777e-07
6.19005e-07
6.05982e-07
6.03903e-07
6.25255e-07
6.72214e-07
7.9016e-07
8.9058e-07
8.7403e-07
8.57601e-07
8.56133e-07
8.39395e-07
8.00289e-07
7.53485e-07
7.25584e-07
7.05711e-07
6.90156e-07
6.82158e-07
7.09457e-07
7.538e-07
7.68785e-07
7.62686e-07
7.42029e-07
7.28511e-07
6.76242e-07
7.23441e-07
7.28814e-07
7.29484e-07
8.06591e-07
9.66323e-07
9.91648e-07
9.54134e-07
8.31925e-07
7.07021e-07
6.4185e-07
6.11892e-07
5.98219e-07
5.96288e-07
6.13965e-07
6.16639e-07
6.15488e-07
6.13639e-07
6.62809e-07
6.76844e-07
6.56619e-07
6.47402e-07
6.61992e-07
6.79099e-07
7.2897e-07
8.07887e-07
8.2688e-07
8.11309e-07
7.79848e-07
7.03882e-07
6.30582e-07
5.87859e-07
5.62612e-07
5.45126e-07
5.33718e-07
5.26645e-07
6.18782e-07
6.06608e-07
6.06613e-07
6.28195e-07
6.55482e-07
6.58916e-07
6.56431e-07
6.69847e-07
6.85926e-07
6.80895e-07
6.67097e-07
6.51751e-07
6.31168e-07
6.04027e-07
5.84261e-07
5.68235e-07
5.54484e-07
5.41242e-07
5.7913e-07
6.44702e-07
7.24198e-07
7.13689e-07
6.6292e-07
6.15858e-07
6.01763e-07
5.97542e-07
6.09779e-07
6.13028e-07
6.08065e-07
6.04179e-07
6.08803e-07
6.37747e-07
7.01231e-07
7.46564e-07
7.79425e-07
7.83311e-07
6.04067e-07
7.68535e-07
7.3918e-07
6.54607e-07
6.1675e-07
6.11618e-07
6.40719e-07
7.3235e-07
7.84114e-07
7.95946e-07
7.9854e-07
8.12679e-07
8.56907e-07
9.83895e-07
1.15994e-06
1.23326e-06
1.28875e-06
1.27083e-06
6.02001e-07
6.36713e-07
6.34731e-07
6.9863e-07
8.53715e-07
1.12892e-06
1.61043e-06
1.91714e-06
2.01677e-06
2.04698e-06
2.10664e-06
2.24838e-06
2.5712e-06
3.22437e-06
3.76264e-06
4.01068e-06
4.14511e-06
4.07904e-06
5.1126e-07
7.97851e-07
1.47609e-06
2.37866e-06
3.07576e-06
4.06358e-06
5.64794e-06
6.95418e-06
7.51599e-06
7.70874e-06
7.83233e-06
8.13224e-06
8.93531e-06
1.00306e-05
1.09191e-05
1.14019e-05
1.1687e-05
1.16267e-05
5.53757e-07
2.87436e-06
6.43462e-06
1.01476e-05
1.24152e-05
1.59552e-05
1.97142e-05
2.24415e-05
2.36225e-05
2.4286e-05
2.45463e-05
2.50396e-05
2.56079e-05
2.62749e-05
2.66148e-05
2.68085e-05
2.66397e-05
2.64056e-05
2.15997e-06
1.26087e-05
2.63859e-05
3.51523e-05
4.13747e-05
4.73823e-05
5.18376e-05
5.41203e-05
5.4822e-05
5.47418e-05
5.42216e-05
5.36437e-05
5.29435e-05
5.22143e-05
5.12933e-05
5.02588e-05
4.91912e-05
4.80504e-05
1.35684e-05
4.81047e-05
8.05805e-05
9.0941e-05
9.6761e-05
0.000100628
0.000101832
0.00010018
9.78598e-05
9.51085e-05
9.19666e-05
8.88228e-05
8.55488e-05
8.24701e-05
7.92124e-05
7.64666e-05
7.33605e-05
7.09888e-05
6.83118e-05
0.000147996
0.000167795
0.000165233
0.000159353
0.000150486
0.000141182
0.000132566
0.000124726
0.000117581
0.00011103
0.000104949
9.92946e-05
9.40609e-05
8.91094e-05
8.47489e-05
8.02228e-05
7.69153e-05
0.000208916
0.000242706
0.000222476
0.000188656
0.000163156
0.000144133
0.000129525
0.000118144
0.000108912
0.000101264
9.45797e-05
8.87028e-05
8.32636e-05
7.83198e-05
7.35708e-05
6.92658e-05
6.49455e-05
6.13138e-05
1.32747e-06
1.75033e-06
2.23534e-06
2.94632e-06
3.85372e-06
4.92176e-06
6.11882e-06
7.40865e-06
8.75415e-06
1.0124e-05
1.14871e-05
1.28181e-05
1.40933e-05
1.52921e-05
1.63983e-05
1.73982e-05
1.82821e-05
1.90416e-05
1.96766e-05
2.01831e-05
2.04835e-05
2.06622e-05
2.07661e-05
2.07238e-05
2.05404e-05
2.0283e-05
1.99662e-05
1.9615e-05
1.92469e-05
1.88825e-05
1.85423e-05
1.82465e-05
1.80148e-05
1.78691e-05
1.78235e-05
1.78817e-05
1.80754e-05
1.84097e-05
1.88936e-05
1.95303e-05
2.03274e-05
2.12855e-05
2.24001e-05
2.36679e-05
2.50821e-05
2.66329e-05
2.8309e-05
3.00982e-05
3.19866e-05
3.39594e-05
3.60017e-05
3.80986e-05
4.02354e-05
4.23973e-05
4.45706e-05
4.67425e-05
4.89015e-05
5.1037e-05
5.31394e-05
5.52002e-05
5.72127e-05
5.91715e-05
6.1072e-05
6.29106e-05
6.46847e-05
6.63934e-05
6.80359e-05
6.96125e-05
7.11237e-05
7.25704e-05
7.3957e-05
7.52809e-05
7.65472e-05
7.77664e-05
7.8922e-05
8.00063e-05
8.10383e-05
8.2027e-05
8.29774e-05
8.38927e-05
8.47756e-05
8.56282e-05
8.64531e-05
8.72522e-05
8.80267e-05
8.87789e-05
8.95108e-05
9.0223e-05
9.09164e-05
9.15924e-05
9.22524e-05
9.28978e-05
9.35299e-05
9.41494e-05
9.47572e-05
9.5354e-05
9.59408e-05
9.65182e-05
9.70869e-05
9.76475e-05
9.82005e-05
9.87465e-05
9.92861e-05
9.98197e-05
0.000100348
0.00010087
0.000101388
0.000101901
0.00010241
0.000102915
0.000103416
0.000103913
0.000104408
0.0001049
0.000105389
0.000105875
0.000106359
0.00010684
0.000107318
0.000107795
0.000108269
0.000108741
0.000109212
0.000109681
0.000110148
0.000110613
0.000111077
0.000111539
0.000112
0.00011246
0.000112918
0.000113374
0.000113829
0.000114282
0.000114735
0.000115186
0.000115636
0.000116085
0.000116532
0.000116978
0.000117423
0.000117866
0.000118309
0.000118749
0.000119189
0.000119627
0.000120063
0.000120498
0.000120931
0.000121363
0.000121793
0.000122221
0.000122647
0.000123071
0.000123493
0.000123913
0.000124329
0.000124743
0.000125153
0.00012556
0.00012596
0.000126358
0.000126742
0.000127137
0.000127479
0.000127903
0.000128131
0.000128633
0.000128664
0.000129294
0.000129038
0.000129811
0.00012924
0.000129912
0.00012923
0.000129383
0.000128793
0.000127191
0.000126913
0.000121317
3.26199e-06
1.79075e-06
1.77568e-06
2.03969e-06
2.42122e-06
2.85613e-06
3.32501e-06
3.8025e-06
4.26223e-06
4.68338e-06
5.04696e-06
5.33686e-06
5.54011e-06
5.6473e-06
5.69141e-06
5.63275e-06
5.499e-06
5.28385e-06
5.01118e-06
4.69754e-06
4.36184e-06
4.05271e-06
3.81998e-06
3.70436e-06
3.71452e-06
3.8197e-06
3.9269e-06
4.04116e-06
4.16175e-06
4.28717e-06
4.41725e-06
4.55039e-06
4.68621e-06
4.82477e-06
4.96701e-06
5.11417e-06
5.26758e-06
5.42996e-06
5.60395e-06
5.79114e-06
5.99611e-06
6.22288e-06
6.47343e-06
6.75193e-06
7.0612e-06
7.40405e-06
7.78295e-06
8.19867e-06
8.65221e-06
9.14433e-06
9.67529e-06
1.02449e-05
1.08526e-05
1.14975e-05
1.21781e-05
1.28928e-05
1.36396e-05
1.44166e-05
1.52214e-05
1.60513e-05
1.69045e-05
1.7776e-05
1.86679e-05
1.95699e-05
2.04887e-05
2.14143e-05
2.23433e-05
2.32884e-05
2.4218e-05
2.51643e-05
2.6104e-05
2.70254e-05
2.79712e-05
2.88873e-05
2.97856e-05
3.0725e-05
3.16855e-05
3.2654e-05
3.36206e-05
3.45778e-05
3.55228e-05
3.64505e-05
3.73611e-05
3.82532e-05
3.91247e-05
3.99799e-05
4.08143e-05
4.16274e-05
4.24205e-05
4.3195e-05
4.39527e-05
4.46949e-05
4.54226e-05
4.61377e-05
4.68413e-05
4.75339e-05
4.82166e-05
4.88905e-05
4.95564e-05
5.02148e-05
5.08664e-05
5.15119e-05
5.21517e-05
5.27865e-05
5.3417e-05
5.40436e-05
5.46667e-05
5.52869e-05
5.59044e-05
5.65197e-05
5.71333e-05
5.77454e-05
5.83565e-05
5.89667e-05
5.95765e-05
6.0186e-05
6.07956e-05
6.14055e-05
6.20158e-05
6.26269e-05
6.3239e-05
6.38522e-05
6.44667e-05
6.50828e-05
6.57007e-05
6.63204e-05
6.6942e-05
6.75658e-05
6.81918e-05
6.88202e-05
6.94513e-05
7.0085e-05
7.07213e-05
7.13603e-05
7.20021e-05
7.26469e-05
7.32947e-05
7.39458e-05
7.45999e-05
7.52571e-05
7.59173e-05
7.65807e-05
7.72474e-05
7.79175e-05
7.8591e-05
7.92677e-05
7.99476e-05
8.06308e-05
8.13172e-05
8.20069e-05
8.27001e-05
8.33966e-05
8.40965e-05
8.47995e-05
8.55058e-05
8.62153e-05
8.69282e-05
8.7644e-05
8.83636e-05
8.90856e-05
8.98125e-05
9.05398e-05
9.12755e-05
9.20057e-05
9.27543e-05
9.34822e-05
9.42531e-05
9.49648e-05
9.57814e-05
9.64459e-05
9.73416e-05
9.79514e-05
9.89711e-05
9.95052e-05
0.000100693
0.00010111
0.000102611
0.000102913
0.000104212
0.000107648
6.14391e-06
2.05967e-06
1.68163e-06
1.68642e-06
1.75968e-06
1.86058e-06
1.96737e-06
2.07009e-06
2.15792e-06
2.21483e-06
2.24147e-06
2.2472e-06
2.21514e-06
2.16761e-06
2.10967e-06
2.0459e-06
1.99544e-06
1.96465e-06
1.95343e-06
1.97306e-06
2.02628e-06
2.10835e-06
2.21485e-06
2.33949e-06
2.47907e-06
2.61974e-06
2.75696e-06
2.88672e-06
3.00659e-06
3.1146e-06
3.20954e-06
3.28995e-06
3.35457e-06
3.39983e-06
3.42769e-06
3.44464e-06
3.44304e-06
3.4276e-06
3.39844e-06
3.35662e-06
3.30434e-06
3.24331e-06
3.17511e-06
3.10083e-06
3.02085e-06
2.93614e-06
2.84819e-06
2.76377e-06
2.686e-06
2.61697e-06
2.55877e-06
2.51335e-06
2.48237e-06
2.46726e-06
2.46818e-06
2.48787e-06
2.52673e-06
2.58365e-06
2.6587e-06
2.75171e-06
2.86226e-06
2.98881e-06
3.13178e-06
3.28748e-06
3.45884e-06
3.64177e-06
3.83551e-06
4.04345e-06
4.25791e-06
4.48296e-06
4.72058e-06
4.95713e-06
5.21253e-06
5.46409e-06
5.72975e-06
5.99269e-06
6.27074e-06
6.55282e-06
6.84129e-06
7.1431e-06
7.43865e-06
7.75343e-06
8.06153e-06
8.3734e-06
8.69992e-06
9.00752e-06
9.3335e-06
9.68191e-06
1.00455e-05
1.04209e-05
1.08047e-05
1.11923e-05
1.15835e-05
1.19765e-05
1.23674e-05
1.27552e-05
1.3139e-05
1.35191e-05
1.38954e-05
1.42676e-05
1.46357e-05
1.49998e-05
1.536e-05
1.57165e-05
1.60696e-05
1.64195e-05
1.67666e-05
1.7111e-05
1.7453e-05
1.77929e-05
1.8131e-05
1.84678e-05
1.88035e-05
1.91384e-05
1.94727e-05
1.98067e-05
2.01406e-05
2.04749e-05
2.08097e-05
2.11453e-05
2.1482e-05
2.182e-05
2.21595e-05
2.25009e-05
2.28443e-05
2.319e-05
2.35382e-05
2.3889e-05
2.42427e-05
2.45995e-05
2.49596e-05
2.53232e-05
2.56905e-05
2.60614e-05
2.64363e-05
2.68153e-05
2.71985e-05
2.75863e-05
2.79787e-05
2.83758e-05
2.87776e-05
2.91843e-05
2.95961e-05
3.00132e-05
3.04357e-05
3.08638e-05
3.12973e-05
3.17365e-05
3.21814e-05
3.26322e-05
3.30893e-05
3.35526e-05
3.40223e-05
3.44985e-05
3.49813e-05
3.54708e-05
3.59678e-05
3.64706e-05
3.69842e-05
3.74986e-05
3.80363e-05
3.85516e-05
3.91365e-05
3.96207e-05
4.03031e-05
4.07086e-05
4.15186e-05
4.19004e-05
4.27915e-05
4.31398e-05
4.41913e-05
4.44961e-05
4.57041e-05
4.60243e-05
4.73974e-05
4.78336e-05
4.95817e-05
5.0255e-05
5.19102e-05
5.79166e-05
1.01193e-05
2.65127e-06
1.72824e-06
1.68108e-06
1.69724e-06
1.72193e-06
1.74075e-06
1.75789e-06
1.77163e-06
1.78236e-06
1.79206e-06
1.80438e-06
1.82204e-06
1.85032e-06
1.89062e-06
1.94672e-06
2.01873e-06
2.11727e-06
2.24449e-06
2.39925e-06
2.57625e-06
2.76992e-06
2.97469e-06
3.18275e-06
3.38908e-06
3.58497e-06
3.7633e-06
3.91976e-06
4.04934e-06
4.15281e-06
4.22187e-06
4.26236e-06
4.28544e-06
4.27628e-06
4.24207e-06
4.18462e-06
4.10795e-06
4.01407e-06
3.90611e-06
3.78545e-06
3.656e-06
3.52094e-06
3.38252e-06
3.24182e-06
3.10112e-06
2.96224e-06
2.82637e-06
2.692e-06
2.5593e-06
2.42893e-06
2.30152e-06
2.17755e-06
2.05733e-06
1.94107e-06
1.82914e-06
1.72203e-06
1.62009e-06
1.52333e-06
1.43118e-06
1.34246e-06
1.25736e-06
1.17774e-06
1.10401e-06
1.03641e-06
9.75793e-07
9.22035e-07
8.75042e-07
8.3567e-07
8.04261e-07
7.80103e-07
7.63981e-07
7.54249e-07
7.53396e-07
7.57158e-07
7.6905e-07
7.84321e-07
8.0596e-07
8.30744e-07
8.6037e-07
8.92746e-07
9.28525e-07
9.67586e-07
1.00772e-06
1.05258e-06
1.09641e-06
1.14437e-06
1.19446e-06
1.24152e-06
1.29846e-06
1.3551e-06
1.40923e-06
1.47709e-06
1.54051e-06
1.60122e-06
1.68007e-06
1.77332e-06
1.87763e-06
1.99014e-06
2.10772e-06
2.22815e-06
2.34994e-06
2.47203e-06
2.59374e-06
2.71461e-06
2.83435e-06
2.9528e-06
3.06986e-06
3.18551e-06
3.29976e-06
3.41264e-06
3.52423e-06
3.63466e-06
3.74406e-06
3.85252e-06
3.9601e-06
4.0669e-06
4.17304e-06
4.27865e-06
4.3839e-06
4.48889e-06
4.59373e-06
4.69851e-06
4.80338e-06
4.90847e-06
5.01392e-06
5.11984e-06
5.22636e-06
5.33358e-06
5.44158e-06
5.5505e-06
5.66046e-06
5.77159e-06
5.88396e-06
5.99767e-06
6.11279e-06
6.22947e-06
6.34782e-06
6.46798e-06
6.59002e-06
6.71401e-06
6.83999e-06
6.96806e-06
7.09838e-06
7.2311e-06
7.36632e-06
7.5041e-06
7.64448e-06
7.78754e-06
7.9334e-06
8.08222e-06
8.23417e-06
8.38938e-06
8.54796e-06
8.70997e-06
8.87571e-06
9.04487e-06
9.21905e-06
9.39511e-06
9.58101e-06
9.76055e-06
9.96808e-06
1.01379e-05
1.03915e-05
1.05259e-05
1.0849e-05
1.09668e-05
1.13291e-05
1.14458e-05
1.19013e-05
1.19836e-05
1.25785e-05
1.2618e-05
1.33657e-05
1.34284e-05
1.42973e-05
1.45173e-05
1.56824e-05
1.61672e-05
1.73695e-05
2.1748e-05
1.5438e-05
3.5816e-06
1.8258e-06
1.73083e-06
1.73652e-06
1.75694e-06
1.78222e-06
1.80193e-06
1.82357e-06
1.85312e-06
1.89419e-06
1.95068e-06
2.02987e-06
2.13561e-06
2.27351e-06
2.44568e-06
2.65824e-06
2.90445e-06
3.17989e-06
3.4821e-06
3.80803e-06
4.15166e-06
4.50499e-06
4.85639e-06
5.19509e-06
5.49689e-06
5.74719e-06
5.94648e-06
6.07651e-06
6.15018e-06
6.18843e-06
6.16065e-06
6.09364e-06
5.99095e-06
5.84762e-06
5.67021e-06
5.4689e-06
5.24859e-06
5.01626e-06
4.77683e-06
4.53706e-06
4.30075e-06
4.07003e-06
3.84634e-06
3.63039e-06
3.42278e-06
3.2238e-06
3.03349e-06
2.85172e-06
2.67824e-06
2.51281e-06
2.35517e-06
2.20515e-06
2.06258e-06
1.92706e-06
1.79807e-06
1.67524e-06
1.55865e-06
1.44879e-06
1.3461e-06
1.25026e-06
1.16018e-06
1.0753e-06
9.95336e-07
9.20111e-07
8.49424e-07
7.83093e-07
7.20973e-07
6.62927e-07
6.08746e-07
5.58299e-07
5.11466e-07
4.68213e-07
4.28144e-07
3.91104e-07
3.57031e-07
3.25907e-07
2.97658e-07
2.72238e-07
2.49434e-07
2.29418e-07
2.11937e-07
1.96818e-07
1.84592e-07
1.74289e-07
1.66298e-07
1.60995e-07
1.56876e-07
1.54715e-07
1.54913e-07
1.55332e-07
1.57445e-07
1.61754e-07
1.65478e-07
1.69458e-07
1.77287e-07
1.85217e-07
1.92186e-07
2.04759e-07
2.22569e-07
2.43855e-07
2.67293e-07
2.92021e-07
3.17477e-07
3.43295e-07
3.69239e-07
3.95157e-07
4.2095e-07
4.46551e-07
4.71915e-07
4.97022e-07
5.21865e-07
5.46444e-07
5.70755e-07
5.94791e-07
6.18553e-07
6.42057e-07
6.65329e-07
6.88395e-07
7.11276e-07
7.33985e-07
7.56537e-07
7.78962e-07
8.01291e-07
8.23563e-07
8.45809e-07
8.68053e-07
8.90319e-07
9.1263e-07
9.35013e-07
9.57503e-07
9.80136e-07
1.00294e-06
1.02593e-06
1.04914e-06
1.07261e-06
1.09635e-06
1.12042e-06
1.14482e-06
1.1696e-06
1.19475e-06
1.22032e-06
1.24635e-06
1.27286e-06
1.2999e-06
1.32749e-06
1.35564e-06
1.38438e-06
1.41375e-06
1.44379e-06
1.47456e-06
1.50611e-06
1.53847e-06
1.57165e-06
1.60582e-06
1.64075e-06
1.6773e-06
1.7137e-06
1.75424e-06
1.79021e-06
1.83957e-06
1.86884e-06
1.93697e-06
1.95434e-06
2.04044e-06
2.059e-06
2.16063e-06
2.17382e-06
2.31325e-06
2.31509e-06
2.50678e-06
2.49887e-06
2.75868e-06
2.76798e-06
3.07575e-06
3.17168e-06
3.60312e-06
3.84845e-06
4.3615e-06
6.41659e-06
2.14255e-05
5.18644e-06
2.24901e-06
1.89325e-06
1.88312e-06
1.89562e-06
1.89578e-06
1.94886e-06
2.02482e-06
2.11676e-06
2.23356e-06
2.39076e-06
2.58421e-06
2.82837e-06
3.12306e-06
3.47708e-06
3.88621e-06
4.35728e-06
4.88308e-06
5.46202e-06
6.0818e-06
6.72448e-06
7.36429e-06
7.96922e-06
8.51614e-06
8.96327e-06
9.29439e-06
9.49686e-06
9.598e-06
9.62318e-06
9.54618e-06
9.3777e-06
9.17612e-06
8.90884e-06
8.58492e-06
8.19969e-06
7.77648e-06
7.31903e-06
6.84569e-06
6.36983e-06
5.90543e-06
5.46382e-06
5.05188e-06
4.67256e-06
4.32523e-06
4.00827e-06
3.71865e-06
3.45312e-06
3.20869e-06
2.98284e-06
2.77352e-06
2.57897e-06
2.39768e-06
2.22843e-06
2.07032e-06
1.92262e-06
1.7846e-06
1.65543e-06
1.53429e-06
1.42058e-06
1.31393e-06
1.21402e-06
1.12055e-06
1.03319e-06
9.51574e-07
8.75394e-07
8.04347e-07
7.38144e-07
6.76513e-07
6.19223e-07
5.66028e-07
5.16655e-07
4.70876e-07
4.28568e-07
3.89582e-07
3.53673e-07
3.20632e-07
2.90267e-07
2.62399e-07
2.36862e-07
2.13505e-07
1.92179e-07
1.7274e-07
1.55067e-07
1.39017e-07
1.24467e-07
1.11322e-07
9.94586e-08
8.87882e-08
7.92398e-08
7.06712e-08
6.30552e-08
5.63511e-08
5.03804e-08
4.52048e-08
4.07621e-08
3.68987e-08
3.38163e-08
3.12764e-08
2.92553e-08
2.84746e-08
2.85652e-08
3.00379e-08
3.25349e-08
3.56855e-08
3.92854e-08
4.31854e-08
4.7283e-08
5.15083e-08
5.58132e-08
6.01644e-08
6.45397e-08
6.89219e-08
7.32978e-08
7.76548e-08
8.19844e-08
8.62815e-08
9.05449e-08
9.47737e-08
9.89677e-08
1.03125e-07
1.07244e-07
1.11327e-07
1.15379e-07
1.19406e-07
1.23411e-07
1.27397e-07
1.31369e-07
1.35327e-07
1.39277e-07
1.43226e-07
1.47179e-07
1.51143e-07
1.55121e-07
1.59118e-07
1.6314e-07
1.67193e-07
1.71282e-07
1.75415e-07
1.79595e-07
1.83829e-07
1.8812e-07
1.92477e-07
1.96904e-07
2.01412e-07
2.06002e-07
2.1068e-07
2.15452e-07
2.20326e-07
2.25312e-07
2.30418e-07
2.35654e-07
2.41032e-07
2.46547e-07
2.52255e-07
2.58067e-07
2.64261e-07
2.7026e-07
2.77405e-07
2.8299e-07
2.92445e-07
2.96003e-07
3.09771e-07
3.11759e-07
3.27945e-07
3.30459e-07
3.51332e-07
3.52568e-07
3.81548e-07
3.81401e-07
4.22958e-07
4.22569e-07
4.79071e-07
4.87772e-07
5.57235e-07
5.92538e-07
6.96239e-07
7.91599e-07
9.41164e-07
1.64735e-06
2.91333e-05
6.63415e-06
2.30269e-06
2.00981e-06
2.01091e-06
2.09212e-06
2.34442e-06
2.44879e-06
2.4898e-06
2.62734e-06
2.83202e-06
3.11718e-06
3.49729e-06
3.95748e-06
4.51915e-06
5.18216e-06
5.96902e-06
6.8592e-06
7.85581e-06
8.92611e-06
1.00415e-05
1.11499e-05
1.21892e-05
1.31045e-05
1.38602e-05
1.44177e-05
1.47179e-05
1.48651e-05
1.48612e-05
1.47157e-05
1.44893e-05
1.41116e-05
1.37671e-05
1.3295e-05
1.27761e-05
1.21536e-05
1.14718e-05
1.07137e-05
9.90866e-06
9.07441e-06
8.2431e-06
7.446e-06
6.70653e-06
6.0372e-06
5.44284e-06
4.92184e-06
4.46714e-06
4.06938e-06
3.71916e-06
3.40809e-06
3.12931e-06
2.87749e-06
2.64864e-06
2.43963e-06
2.24798e-06
2.07171e-06
1.90923e-06
1.75928e-06
1.62076e-06
1.49269e-06
1.37418e-06
1.26443e-06
1.16274e-06
1.06848e-06
9.81071e-07
9.00023e-07
8.24893e-07
7.55287e-07
6.90824e-07
6.3115e-07
5.75949e-07
5.24941e-07
4.77859e-07
4.34441e-07
3.94442e-07
3.57639e-07
3.23826e-07
2.92806e-07
2.64388e-07
2.38391e-07
2.14648e-07
1.93001e-07
1.73293e-07
1.55376e-07
1.39114e-07
1.24383e-07
1.11062e-07
9.90324e-08
8.81859e-08
7.84212e-08
6.96433e-08
6.1766e-08
5.47095e-08
4.83953e-08
4.27545e-08
3.77238e-08
3.32446e-08
2.92648e-08
2.57329e-08
2.26055e-08
1.98412e-08
1.74018e-08
1.52736e-08
1.34413e-08
1.18931e-08
1.06246e-08
9.63177e-09
8.92513e-09
8.46416e-09
8.30005e-09
8.31515e-09
8.51941e-09
8.87093e-09
9.32609e-09
9.85357e-09
1.04311e-08
1.10426e-08
1.16766e-08
1.23252e-08
1.29826e-08
1.36446e-08
1.43079e-08
1.49708e-08
1.56323e-08
1.62919e-08
1.69493e-08
1.76043e-08
1.82566e-08
1.89062e-08
1.95533e-08
2.01988e-08
2.08434e-08
2.1488e-08
2.21331e-08
2.2779e-08
2.34267e-08
2.40771e-08
2.47311e-08
2.539e-08
2.60545e-08
2.67257e-08
2.74043e-08
2.80912e-08
2.87875e-08
2.94947e-08
3.02132e-08
3.09444e-08
3.16894e-08
3.24495e-08
3.32266e-08
3.40214e-08
3.48362e-08
3.56733e-08
3.65312e-08
3.74229e-08
3.83261e-08
3.9306e-08
4.02248e-08
4.1398e-08
4.21934e-08
4.38472e-08
4.42211e-08
4.66255e-08
4.6912e-08
4.95863e-08
4.99754e-08
5.3595e-08
5.38707e-08
5.89037e-08
5.91651e-08
6.64142e-08
6.72286e-08
7.70958e-08
8.05246e-08
9.36725e-08
1.0345e-07
1.23495e-07
1.52011e-07
1.8992e-07
3.9219e-07
3.46555e-05
8.80731e-06
2.90844e-06
2.49017e-06
2.5376e-06
2.57301e-06
2.49541e-06
2.63702e-06
2.89857e-06
3.25008e-06
3.71589e-06
4.22314e-06
4.87229e-06
5.69691e-06
6.70706e-06
7.90872e-06
9.27508e-06
1.08064e-05
1.2453e-05
1.41863e-05
1.59355e-05
1.75932e-05
1.89926e-05
2.01751e-05
2.09864e-05
2.13896e-05
2.15708e-05
2.14897e-05
2.11888e-05
2.0752e-05
2.0376e-05
1.97397e-05
1.92673e-05
1.85704e-05
1.78872e-05
1.7096e-05
1.62488e-05
1.52938e-05
1.42402e-05
1.30726e-05
1.1819e-05
1.05427e-05
9.31982e-06
8.19423e-06
7.18907e-06
6.31836e-06
5.57799e-06
4.95386e-06
4.4277e-06
3.98114e-06
3.59788e-06
3.26465e-06
2.97119e-06
2.70989e-06
2.47519e-06
2.26306e-06
2.07053e-06
1.89525e-06
1.73527e-06
1.58896e-06
1.45492e-06
1.33201e-06
1.21919e-06
1.11554e-06
1.02025e-06
9.32582e-07
8.51911e-07
7.77662e-07
7.09311e-07
6.46387e-07
5.88481e-07
5.35222e-07
4.86268e-07
4.41298e-07
4.00018e-07
3.62163e-07
3.27488e-07
2.95763e-07
2.66768e-07
2.40302e-07
2.16177e-07
1.94218e-07
1.74257e-07
1.56137e-07
1.39712e-07
1.24847e-07
1.11417e-07
9.92977e-08
8.83799e-08
7.85575e-08
6.97341e-08
6.18221e-08
5.47369e-08
4.84001e-08
4.27423e-08
3.76991e-08
3.32093e-08
2.92184e-08
2.56762e-08
2.2536e-08
1.97563e-08
1.73002e-08
1.51323e-08
1.32212e-08
1.15387e-08
1.00603e-08
8.76367e-09
7.62896e-09
6.6384e-09
5.7772e-09
5.03111e-09
4.38916e-09
3.84198e-09
3.38167e-09
3.00179e-09
2.69648e-09
2.46083e-09
2.28858e-09
2.17395e-09
2.10836e-09
2.08534e-09
2.093e-09
2.12713e-09
2.17976e-09
2.2458e-09
2.32146e-09
2.4039e-09
2.49103e-09
2.5814e-09
2.67401e-09
2.76823e-09
2.86363e-09
2.95992e-09
3.0569e-09
3.15445e-09
3.25254e-09
3.3512e-09
3.45048e-09
3.55051e-09
3.65139e-09
3.75325e-09
3.85615e-09
3.96021e-09
4.06554e-09
4.17237e-09
4.28079e-09
4.39105e-09
4.50332e-09
4.6178e-09
4.73479e-09
4.85436e-09
4.97684e-09
5.10278e-09
5.23172e-09
5.36629e-09
5.50187e-09
5.65152e-09
5.78735e-09
5.97243e-09
6.08169e-09
6.353e-09
6.39737e-09
6.7717e-09
6.82441e-09
7.24243e-09
7.31207e-09
7.88322e-09
7.96641e-09
8.75619e-09
8.89758e-09
1.00554e-08
1.03991e-08
1.20629e-08
1.29808e-08
1.53788e-08
1.80312e-08
2.17563e-08
2.86772e-08
3.84545e-08
9.23117e-08
4.34273e-05
1.1313e-05
3.24416e-06
2.46288e-06
2.4794e-06
2.66808e-06
2.95136e-06
3.64218e-06
3.94224e-06
4.28017e-06
4.80456e-06
5.70713e-06
6.8477e-06
8.25007e-06
9.91426e-06
1.18436e-05
1.4033e-05
1.65454e-05
1.9065e-05
2.12632e-05
2.34765e-05
2.55166e-05
2.72941e-05
2.82706e-05
2.87032e-05
2.88698e-05
2.85441e-05
2.79357e-05
2.73595e-05
2.65323e-05
2.60853e-05
2.52198e-05
2.4565e-05
2.35412e-05
2.25899e-05
2.16424e-05
2.07209e-05
1.98075e-05
1.88692e-05
1.77938e-05
1.64595e-05
1.48219e-05
1.30381e-05
1.13712e-05
9.80942e-06
8.42931e-06
7.24694e-06
6.25645e-06
5.43798e-06
4.76599e-06
4.21318e-06
3.75385e-06
3.36631e-06
3.03365e-06
2.74352e-06
2.48723e-06
2.25868e-06
2.05348e-06
1.86835e-06
1.70076e-06
1.54872e-06
1.41058e-06
1.28488e-06
1.17034e-06
1.06585e-06
9.70463e-07
8.83329e-07
8.03676e-07
7.30807e-07
6.64119e-07
6.03087e-07
5.47238e-07
4.96134e-07
4.49375e-07
4.0661e-07
3.67532e-07
3.31852e-07
2.99298e-07
2.69622e-07
2.42595e-07
2.18014e-07
1.95682e-07
1.75419e-07
1.57053e-07
1.40429e-07
1.25406e-07
1.11848e-07
9.96274e-08
8.86273e-08
7.87398e-08
6.98659e-08
6.19151e-08
5.47995e-08
4.844e-08
4.2765e-08
3.77075e-08
3.32076e-08
2.92105e-08
2.56642e-08
2.25209e-08
1.97387e-08
1.72807e-08
1.51115e-08
1.31998e-08
1.1517e-08
1.00379e-08
8.73926e-09
7.60075e-09
6.60403e-09
5.73251e-09
4.97129e-09
4.30722e-09
3.72875e-09
3.22561e-09
2.78867e-09
2.40977e-09
2.08172e-09
1.79821e-09
1.55384e-09
1.34385e-09
1.16422e-09
1.01146e-09
8.82595e-10
7.74998e-10
6.86413e-10
6.14863e-10
5.58559e-10
5.15791e-10
4.84808e-10
4.63974e-10
4.51162e-10
4.45457e-10
4.44428e-10
4.47491e-10
4.53659e-10
4.62019e-10
4.72e-10
4.83203e-10
4.95338e-10
5.08202e-10
5.21656e-10
5.3559e-10
5.49933e-10
5.64641e-10
5.79701e-10
5.95097e-10
6.10846e-10
6.2696e-10
6.43439e-10
6.60327e-10
6.77619e-10
6.95359e-10
7.13645e-10
7.32377e-10
7.52021e-10
7.71722e-10
7.93834e-10
8.13322e-10
8.41436e-10
8.56198e-10
8.9832e-10
9.04376e-10
9.59832e-10
9.69633e-10
1.03287e-09
1.04745e-09
1.13275e-09
1.15825e-09
1.28215e-09
1.33124e-09
1.53611e-09
1.6366e-09
1.99067e-09
2.24097e-09
2.72608e-09
3.66915e-09
4.70547e-09
6.77182e-09
1.01413e-08
2.5031e-08
5.04067e-05
1.39147e-05
3.47581e-06
2.60293e-06
2.96744e-06
3.43417e-06
3.93859e-06
4.08515e-06
4.5358e-06
5.3173e-06
6.54385e-06
8.08644e-06
9.77561e-06
1.18185e-05
1.43834e-05
1.76142e-05
2.08917e-05
2.33802e-05
2.64062e-05
2.95766e-05
3.2323e-05
3.34158e-05
3.39055e-05
3.41153e-05
3.40007e-05
3.34378e-05
3.30876e-05
3.27304e-05
3.20888e-05
3.1358e-05
3.09283e-05
3.02898e-05
2.94738e-05
2.78339e-05
2.61756e-05
2.46447e-05
2.32361e-05
2.20922e-05
2.10893e-05
2.02055e-05
1.93951e-05
1.84508e-05
1.71624e-05
1.53636e-05
1.32864e-05
1.13354e-05
9.62257e-06
8.15261e-06
6.91524e-06
5.89437e-06
5.06566e-06
4.39814e-06
3.85892e-06
3.41776e-06
3.04985e-06
2.73663e-06
2.46503e-06
2.22615e-06
2.01387e-06
1.82388e-06
1.653e-06
1.49878e-06
1.35927e-06
1.23286e-06
1.11821e-06
1.01418e-06
9.19691e-07
8.33813e-07
7.55712e-07
6.84662e-07
6.20005e-07
5.6114e-07
5.07522e-07
4.58681e-07
4.14206e-07
3.73726e-07
3.36892e-07
3.03385e-07
2.72923e-07
2.45254e-07
2.2015e-07
1.97393e-07
1.76782e-07
1.58134e-07
1.41283e-07
1.26077e-07
1.1237e-07
1.00029e-07
8.89329e-08
7.89701e-08
7.00375e-08
6.20399e-08
5.48871e-08
4.84987e-08
4.28023e-08
3.77287e-08
3.32161e-08
2.92089e-08
2.56549e-08
2.25069e-08
1.97224e-08
1.72627e-08
1.50926e-08
1.31802e-08
1.14977e-08
1.0019e-08
8.72102e-09
7.5833e-09
6.58737e-09
5.71658e-09
4.95608e-09
4.29271e-09
3.71482e-09
3.21204e-09
2.77512e-09
2.39585e-09
2.06694e-09
1.782e-09
1.53538e-09
1.32215e-09
1.13799e-09
9.79175e-10
8.42383e-10
7.24683e-10
6.23497e-10
5.36593e-10
4.62065e-10
3.98276e-10
3.43802e-10
2.97392e-10
2.57935e-10
2.2451e-10
1.96286e-10
1.72647e-10
1.53042e-10
1.36974e-10
1.23988e-10
1.13681e-10
1.05691e-10
9.96865e-11
9.53558e-11
9.24069e-11
9.05823e-11
8.95659e-11
8.9435e-11
8.97866e-11
9.05946e-11
9.17528e-11
9.31914e-11
9.48665e-11
9.67413e-11
9.87895e-11
1.01007e-10
1.03346e-10
1.05881e-10
1.08431e-10
1.11418e-10
1.13969e-10
1.17952e-10
1.1987e-10
1.25969e-10
1.26954e-10
1.34819e-10
1.37723e-10
1.45266e-10
1.53747e-10
1.62745e-10
1.77506e-10
2.01757e-10
2.22342e-10
2.85979e-10
3.29247e-10
4.74993e-10
6.16679e-10
9.06009e-10
1.452e-09
2.19262e-09
3.66434e-09
5.81926e-09
1.07778e-08
5.67773e-05
1.74234e-05
4.411e-06
3.53449e-06
3.85881e-06
4.11587e-06
4.13501e-06
4.52646e-06
5.50643e-06
6.8003e-06
8.45863e-06
1.05075e-05
1.30987e-05
1.63844e-05
2.05956e-05
2.39655e-05
2.73545e-05
3.11231e-05
3.41362e-05
3.53634e-05
3.58533e-05
3.60272e-05
3.59237e-05
3.55229e-05
3.5322e-05
3.52692e-05
3.50731e-05
3.49559e-05
3.47761e-05
3.44888e-05
3.40304e-05
3.36536e-05
3.31405e-05
3.22807e-05
3.06764e-05
2.83069e-05
2.57277e-05
2.361e-05
2.21202e-05
2.10306e-05
2.01581e-05
1.93936e-05
1.86141e-05
1.76973e-05
1.64302e-05
1.46148e-05
1.25192e-05
1.06393e-05
8.97205e-06
7.52836e-06
6.31647e-06
5.32774e-06
4.53757e-06
3.91183e-06
3.41422e-06
3.01221e-06
2.68005e-06
2.39906e-06
2.15644e-06
1.94356e-06
1.75466e-06
1.58573e-06
1.4339e-06
1.29693e-06
1.17308e-06
1.06092e-06
9.59177e-07
8.66944e-07
7.83395e-07
7.07683e-07
6.39049e-07
5.76811e-07
5.2037e-07
4.69192e-07
4.22796e-07
3.80729e-07
3.42583e-07
3.07994e-07
2.76647e-07
2.4826e-07
2.2257e-07
1.99334e-07
1.78331e-07
1.59366e-07
1.42259e-07
1.26845e-07
1.1297e-07
1.00495e-07
8.92922e-08
7.92441e-08
7.02436e-08
6.21916e-08
5.49955e-08
4.85735e-08
4.28516e-08
3.77603e-08
3.32343e-08
2.92155e-08
2.56514e-08
2.24959e-08
1.97071e-08
1.7245e-08
1.50736e-08
1.31607e-08
1.1478e-08
9.99972e-09
8.7025e-09
7.56559e-09
6.57044e-09
5.7004e-09
4.94069e-09