/*--------------------------------*- C++ -*----------------------------------*\
| =========                 |                                                 |
| \\      /  F ield         | OpenFOAM: The Open Source CFD Toolbox           |
|  \\    /   O peration     | Version:  2.1.x                                 |
|   \\  /    A nd           | Web:      www.OpenFOAM.org                      |
|    \\/     M anipulation  |                                                 |
\*---------------------------------------------------------------------------*/
FoamFile
{
    version     2.0;
    format      ascii;
    class       volScalarField;
    location    "0.006";
    object      p;
}
// * * * * * * * * * * * * * * * * * * * * * * * * * * * * * * * * * * * * * //

dimensions      [0 2 -2 0 0 0 0];

internalField   nonuniform List<scalar> 
12225
(
-121.347
-132.621
-134.914
-132.754
-130.017
-127.481
-125.066
-122.941
-121.364
-120.024
-118.692
-117.363
-116.205
-115.184
-114.221
-113.342
-112.637
-110.988
-123.016
-132.857
-134.815
-132.679
-129.973
-127.468
-125.069
-122.936
-121.366
-120.041
-118.705
-117.368
-116.21
-115.198
-114.231
-113.365
-112.681
-111.359
-125.02
-132.636
-134.257
-132.378
-129.81
-127.369
-125
-122.879
-121.326
-120.015
-118.686
-117.364
-116.198
-115.205
-114.216
-113.373
-112.761
-111.511
-128.217
-132.581
-133.581
-131.947
-129.52
-127.138
-124.826
-122.764
-121.23
-119.921
-118.594
-117.3
-116.144
-115.161
-114.201
-113.414
-112.731
-111.472
-130.838
-132.739
-133.001
-131.513
-129.219
-126.878
-124.613
-122.608
-121.07
-119.732
-118.407
-117.165
-116.041
-115.055
-114.128
-113.297
-112.514
-111.45
-134.448
-133.034
-132.469
-130.982
-128.837
-126.552
-124.352
-122.413
-120.863
-119.504
-118.208
-117.037
-115.925
-114.907
-114.002
-113.251
-112.313
-111.36
-135.357
-133.347
-132.061
-130.441
-128.426
-126.229
-124.089
-122.193
-120.638
-119.269
-117.977
-116.832
-115.76
-114.735
-113.789
-112.733
-112.036
-111.328
-136.226
-133.532
-131.725
-129.963
-128.025
-125.908
-123.829
-121.969
-120.405
-119.034
-117.756
-116.625
-115.579
-114.574
-113.655
-112.764
-111.954
-111.277
-135.92
-133.631
-131.483
-129.54
-127.585
-125.546
-123.552
-121.751
-120.195
-118.827
-117.545
-116.417
-115.397
-114.405
-113.496
-112.618
-111.86
-111.178
-136.168
-133.754
-131.227
-129.088
-127.095
-125.125
-123.225
-121.49
-119.979
-118.577
-117.298
-116.168
-115.174
-114.212
-113.309
-112.461
-111.729
-110.998
-137.18
-134.021
-130.96
-128.567
-126.474
-124.521
-122.729
-121.098
-119.598
-118.248
-116.981
-115.851
-114.887
-113.945
-113.022
-112.259
-111.565
-110.771
-137.653
-134.282
-130.631
-127.947
-125.753
-123.823
-122.14
-120.63
-119.208
-117.866
-116.618
-115.51
-114.56
-113.648
-112.766
-112.024
-111.293
-110.595
-145.134
-134.727
-129.975
-127.057
-124.869
-122.992
-121.371
-119.943
-118.575
-117.317
-116.131
-115.061
-114.143
-113.278
-112.411
-111.661
-111.035
-110.474
-144.139
-133.359
-128.56
-125.77
-123.681
-121.904
-120.377
-119.059
-117.82
-116.668
-115.605
-114.575
-113.66
-112.825
-112.008
-111.289
-110.708
-110.113
-129.02
-127.512
-125.677
-123.83
-122.255
-120.707
-119.251
-117.996
-116.817
-115.774
-114.826
-113.891
-112.994
-112.195
-111.457
-110.773
-110.178
-109.628
-113.021
-122.032
-122.678
-121.714
-120.405
-118.974
-117.651
-116.49
-115.526
-114.642
-113.812
-112.992
-112.188
-111.442
-110.757
-110.126
-109.52
-108.904
-123.041
-123.581
-121.957
-120.253
-118.729
-117.312
-116.061
-115.01
-114.096
-113.294
-112.575
-111.881
-111.17
-110.471
-109.831
-109.263
-108.736
-108.145
-138.735
-126.913
-121.108
-117.914
-115.901
-114.583
-113.666
-112.935
-112.252
-111.617
-111.071
-110.571
-110.025
-109.407
-108.806
-108.318
-107.883
-107.36
-137.092
-123.622
-117.704
-114.543
-112.805
-111.919
-111.387
-110.95
-110.506
-110.064
-109.681
-109.338
-108.93
-108.411
-107.869
-107.405
-107.032
-106.689
-118.808
-113.544
-110.84
-109.69
-109.181
-109.014
-108.993
-108.984
-108.876
-108.666
-108.432
-108.203
-107.928
-107.544
-107.09
-106.689
-106.383
-106.049
-101.392
-102.152
-103.623
-104.794
-105.714
-106.381
-106.922
-107.356
-107.594
-107.61
-107.483
-107.312
-107.105
-106.815
-106.459
-106.112
-105.814
-105.532
-82.7674
-92.0687
-97.2434
-100.541
-102.8
-104.278
-105.3
-106.039
-106.485
-106.661
-106.653
-106.558
-106.424
-106.231
-105.972
-105.687
-105.427
-105.169
-69.0819
-84.8906
-92.6494
-97.4134
-100.598
-102.701
-104.127
-105.083
-105.661
-105.96
-106.058
-106.03
-105.941
-105.798
-105.594
-105.354
-105.106
-104.832
-66.8441
-81.3354
-89.843
-95.4177
-99.164
-101.655
-103.296
-104.348
-105.004
-105.389
-105.573
-105.619
-105.586
-105.497
-105.35
-105.143
-104.9
-104.616
-68.0138
-79.9975
-88.4008
-94.3268
-98.3585
-101.035
-102.756
-103.867
-104.583
-105.028
-105.271
-105.366
-105.362
-105.291
-105.16
-104.97
-104.73
-104.436
-70.3423
-79.6906
-87.8886
-93.9483
-98.0392
-100.695
-102.42
-103.564
-104.315
-104.789
-105.061
-105.182
-105.198
-105.141
-105.025
-104.853
-104.625
-104.333
-70.1298
-79.4471
-87.8515
-93.9987
-98.025
-100.572
-102.273
-103.438
-104.215
-104.707
-104.988
-105.113
-105.122
-105.054
-104.93
-104.762
-104.545
-104.26
-68.5756
-79.36
-88.1867
-94.3105
-98.1
-100.521
-102.195
-103.371
-104.167
-104.666
-104.942
-105.058
-105.056
-104.978
-104.85
-104.688
-104.491
-104.241
-70.3032
-79.747
-88.9326
-94.9007
-98.4024
-100.631
-102.216
-103.355
-104.135
-104.629
-104.905
-105.017
-105.013
-104.93
-104.798
-104.633
-104.44
-104.217
-68.417
-79.1272
-88.8924
-94.9381
-98.4554
-100.672
-102.221
-103.331
-104.098
-104.585
-104.859
-104.974
-104.975
-104.895
-104.767
-104.601
-104.409
-104.18
-101.574
-101.583
-101.599
-101.622
-101.651
-101.685
-101.724
-101.764
-101.805
-101.843
-101.875
-101.897
-101.905
-101.894
-101.858
-101.791
-101.684
-101.532
-101.327
-101.059
-100.723
-100.309
-99.8131
-99.2286
-98.5524
-97.7786
-96.9089
-95.9464
-94.8962
-93.7659
-92.5653
-91.3055
-89.9992
-88.6597
-87.301
-85.9364
-84.5792
-83.2413
-81.9332
-80.6643
-79.4423
-78.2727
-77.1597
-76.1059
-75.1139
-74.1811
-73.3072
-72.4904
-71.7286
-71.0188
-70.3579
-69.7428
-69.17
-68.6361
-68.1379
-67.6722
-67.2359
-66.8261
-66.4399
-66.0749
-65.7285
-65.3985
-65.0829
-64.7796
-64.4869
-64.2031
-63.9268
-63.6566
-63.3913
-63.1297
-62.8709
-62.6139
-62.3578
-62.1019
-61.8453
-61.5889
-61.3307
-61.0703
-60.8075
-60.542
-60.2737
-60.0022
-59.7274
-59.4491
-59.1671
-58.8814
-58.5917
-58.2981
-58.0005
-57.6989
-57.3931
-57.0832
-56.7692
-56.4511
-56.1289
-55.8026
-55.4721
-55.1376
-54.7989
-54.4562
-54.1095
-53.7587
-53.404
-53.0452
-52.6825
-52.3159
-51.9453
-51.5709
-51.1926
-50.8104
-50.4244
-50.0346
-49.641
-49.2436
-48.8424
-48.4374
-48.0286
-47.6161
-47.1998
-46.7798
-46.356
-45.9284
-45.4971
-45.062
-44.6232
-44.1805
-43.7341
-43.2839
-42.8299
-42.3722
-41.9106
-41.4452
-40.9759
-40.5028
-40.0259
-39.545
-39.0603
-38.5716
-38.079
-37.5825
-37.0819
-36.5774
-36.0688
-35.5561
-35.0393
-34.5185
-33.9935
-33.4643
-32.9309
-32.3933
-31.8514
-31.3052
-30.7546
-30.1996
-29.6402
-29.0763
-28.5078
-27.9347
-27.3569
-26.7742
-26.1869
-25.5943
-24.997
-24.3935
-23.7861
-23.1701
-22.5526
-21.9216
-21.2937
-20.6452
-20.0034
-19.3369
-18.6732
-17.9857
-17.295
-16.5695
-15.8487
-15.0692
-14.2821
-13.4736
-101.688
-101.696
-101.713
-101.738
-101.77
-101.807
-101.85
-101.895
-101.942
-101.987
-102.027
-102.058
-102.077
-102.078
-102.054
-101.998
-101.905
-101.765
-101.571
-101.315
-100.987
-100.581
-100.089
-99.5057
-98.8263
-98.0485
-97.1715
-96.1982
-95.1341
-93.9873
-92.7678
-91.4877
-90.1601
-88.7992
-87.4193
-86.0347
-84.6588
-83.304
-81.981
-80.6993
-79.4662
-78.2874
-77.168
-76.1094
-75.1122
-74.1762
-73.3001
-72.482
-71.7193
-71.0093
-70.3486
-69.7339
-69.1618
-68.6289
-68.1317
-67.6672
-67.2321
-66.8235
-66.4386
-66.0747
-65.7295
-65.4005
-65.0858
-64.7833
-64.4913
-64.2082
-63.9323
-63.6624
-63.3973
-63.1359
-62.8771
-62.62
-62.3638
-62.1081
-61.8521
-61.5943
-61.3354
-61.0746
-60.8116
-60.5458
-60.2772
-60.0054
-59.7302
-59.4515
-59.1692
-58.883
-58.5931
-58.2994
-58.0016
-57.6996
-57.3936
-57.0835
-56.7693
-56.451
-56.1286
-55.8022
-55.4715
-55.1368
-54.798
-54.4552
-54.1084
-53.7575
-53.4026
-53.0438
-52.681
-52.3143
-51.9436
-51.5692
-51.1908
-50.8086
-50.4225
-50.0327
-49.639
-49.2416
-48.8403
-48.4353
-48.0265
-47.6139
-47.1976
-46.7775
-46.3537
-45.9261
-45.4948
-45.0597
-44.6208
-44.1782
-43.7318
-43.2816
-42.8276
-42.3698
-41.9082
-41.4428
-40.9735
-40.5004
-40.0235
-39.5426
-39.0579
-38.5692
-38.0766
-37.5801
-37.0795
-36.575
-36.0664
-35.5537
-35.037
-34.5161
-33.9911
-33.4619
-32.9286
-32.391
-31.8491
-31.3029
-30.7523
-30.1973
-29.6379
-29.074
-28.5056
-27.9325
-27.3547
-26.7722
-26.1848
-25.5922
-24.9951
-24.3915
-23.7845
-23.1681
-22.5515
-21.9196
-21.2932
-20.6436
-20.0031
-19.3369
-18.6724
-17.9886
-17.2943
-16.5768
-15.8498
-15.0851
-14.29
-13.4817
-101.923
-101.932
-101.953
-101.982
-102.019
-102.064
-102.115
-102.171
-102.23
-102.289
-102.345
-102.395
-102.434
-102.456
-102.456
-102.425
-102.357
-102.243
-102.073
-101.84
-101.532
-101.143
-100.664
-100.089
-99.4122
-98.6279
-97.7369
-96.7424
-95.6505
-94.47
-93.2122
-91.8905
-90.5195
-89.1148
-87.6925
-86.2677
-84.8549
-83.4669
-82.115
-80.8085
-79.5547
-78.3594
-77.2267
-76.1584
-75.1535
-74.2119
-73.3318
-72.5111
-71.7469
-71.0359
-70.3749
-69.7603
-69.1885
-68.656
-68.1594
-67.6953
-67.2607
-66.8525
-66.4678
-66.1041
-65.7589
-65.4298
-65.1148
-64.8119
-64.5193
-64.2354
-63.9588
-63.688
-63.4219
-63.1594
-62.8996
-62.6414
-62.3841
-62.1271
-61.8697
-61.6112
-61.3512
-61.0895
-60.8254
-60.5588
-60.2893
-60.0166
-59.7407
-59.4613
-59.1783
-58.8917
-58.6011
-58.3065
-58.0081
-57.7058
-57.3994
-57.0888
-56.7742
-56.4553
-56.1329
-55.8061
-55.4753
-55.1403
-54.8013
-54.4582
-54.1112
-53.7601
-53.4051
-53.0461
-52.6831
-52.3163
-51.9455
-51.5709
-51.1924
-50.8101
-50.424
-50.034
-49.6403
-49.2427
-48.8414
-48.4363
-48.0275
-47.6148
-47.1985
-46.7784
-46.3545
-45.9269
-45.4955
-45.0604
-44.6214
-44.1788
-43.7323
-43.2821
-42.8281
-42.3703
-41.9087
-41.4432
-40.974
-40.5008
-40.0239
-39.543
-39.0582
-38.5696
-38.0769
-37.5804
-37.0798
-36.5753
-36.0667
-35.554
-35.0372
-34.5164
-33.9913
-33.4622
-32.9288
-32.3912
-31.8493
-31.3031
-30.7525
-30.1976
-29.6382
-29.0743
-28.5058
-27.9328
-27.3551
-26.7725
-26.1853
-25.5927
-24.9958
-24.3921
-23.7855
-23.1691
-22.553
-21.9215
-21.2949
-20.6475
-20.0052
-19.3443
-18.6763
-18.001
-17.3026
-16.5966
-15.8678
-15.1218
-14.3347
-13.5697
-102.288
-102.299
-102.324
-102.359
-102.405
-102.46
-102.525
-102.597
-102.675
-102.757
-102.839
-102.918
-102.988
-103.045
-103.083
-103.091
-103.064
-102.99
-102.861
-102.665
-102.391
-102.03
-101.571
-101.008
-100.332
-99.5388
-98.6272
-97.6006
-96.4656
-95.2332
-93.916
-92.5297
-91.0915
-89.6191
-88.1308
-86.6436
-85.1734
-83.7341
-82.3372
-80.9923
-79.7068
-78.4858
-77.334
-76.2496
-75.2327
-74.2819
-73.3951
-72.5695
-71.8017
-71.0883
-70.4254
-69.8095
-69.2367
-68.7035
-68.2063
-67.7417
-67.3066
-66.8979
-66.5127
-66.1483
-65.8023
-65.4724
-65.1565
-64.8525
-64.5588
-64.2737
-63.9957
-63.7236
-63.4561
-63.1921
-62.9308
-62.6711
-62.4124
-62.1539
-61.895
-61.6351
-61.3738
-61.1107
-60.8454
-60.5775
-60.3068
-60.033
-59.756
-59.4756
-59.1916
-58.904
-58.6125
-58.3172
-58.0181
-57.7151
-57.408
-57.0969
-56.7819
-56.463
-56.1394
-55.812
-55.4806
-55.1453
-54.8059
-54.4624
-54.115
-53.7636
-53.4083
-53.049
-52.6859
-52.3188
-51.9478
-51.573
-51.1943
-50.8118
-50.4255
-50.0354
-49.6415
-49.2438
-48.8424
-48.4372
-48.0282
-47.6155
-47.1991
-46.7789
-46.355
-45.9273
-45.4958
-45.0606
-44.6216
-44.1789
-43.7325
-43.2822
-42.8281
-42.3703
-41.9087
-41.4432
-40.9739
-40.5008
-40.0238
-39.5429
-39.0581
-38.5694
-38.0768
-37.5802
-37.0797
-36.5751
-36.0665
-35.5538
-35.0371
-34.5162
-33.9912
-33.462
-32.9286
-32.391
-31.8491
-31.3029
-30.7524
-30.1975
-29.6381
-29.0743
-28.5059
-27.9329
-27.3553
-26.7728
-26.1857
-25.5933
-24.9964
-24.3933
-23.7863
-23.1713
-22.554
-21.9256
-21.2963
-20.6544
-20.0082
-19.3542
-18.6836
-18.0148
-17.318
-16.6219
-15.8997
-15.171
-14.4113
-13.677
-102.76
-102.773
-102.807
-102.859
-102.92
-102.995
-103.081
-103.178
-103.284
-103.398
-103.517
-103.637
-103.755
-103.863
-103.956
-104.024
-104.058
-104.047
-103.979
-103.842
-103.621
-103.305
-102.882
-102.341
-101.673
-100.869
-99.9274
-98.8532
-97.6544
-96.3447
-94.939
-93.4566
-91.9191
-90.3469
-88.7623
-87.1844
-85.6317
-84.1189
-82.6584
-81.2598
-79.9298
-78.6722
-77.4953
-76.3883
-75.3541
-74.3904
-73.4937
-72.6607
-71.8872
-71.1694
-70.5031
-69.8844
-69.3094
-68.7742
-68.2754
-67.8093
-67.3728
-66.9627
-66.5762
-66.2104
-65.863
-65.5315
-65.2139
-64.9083
-64.6127
-64.3258
-64.0459
-63.7717
-63.5022
-63.2362
-62.9728
-62.7111
-62.4504
-62.1898
-61.929
-61.6672
-61.4041
-61.1392
-60.8722
-60.6026
-60.3304
-60.0551
-59.7767
-59.495
-59.2097
-58.9209
-58.6283
-58.3321
-58.032
-57.728
-57.42
-57.1081
-56.7922
-56.4723
-56.1483
-55.8203
-55.4883
-55.1523
-54.8123
-54.4684
-54.1205
-53.7687
-53.4129
-53.0533
-52.6898
-52.3224
-51.9511
-51.576
-51.1971
-50.8144
-50.4278
-50.0375
-49.6434
-49.2455
-48.8439
-48.4386
-48.0295
-47.6167
-47.2001
-46.7798
-46.3558
-45.928
-45.4964
-45.0611
-44.6221
-44.1794
-43.7328
-43.2825
-42.8284
-42.3705
-41.9088
-41.4433
-40.974
-40.5008
-40.0238
-39.5429
-39.0581
-38.5694
-38.0767
-37.5801
-37.0796
-36.575
-36.0664
-35.5537
-35.037
-34.5161
-33.9911
-33.4619
-32.9285
-32.3909
-31.849
-31.3028
-30.7523
-30.1974
-29.6381
-29.0743
-28.506
-27.9331
-27.3555
-26.7732
-26.1861
-25.5939
-24.9971
-24.3945
-23.7874
-23.1736
-22.5554
-21.9299
-21.2984
-20.6614
-20.0124
-19.3639
-18.6936
-18.0285
-17.3389
-16.647
-15.9386
-15.2212
-14.4913
-13.7807
-103.404
-103.414
-103.45
-103.5
-103.573
-103.664
-103.773
-103.902
-104.047
-104.208
-104.381
-104.562
-104.747
-104.931
-105.104
-105.26
-105.386
-105.469
-105.495
-105.448
-105.311
-105.068
-104.702
-104.199
-103.549
-102.733
-101.754
-100.613
-99.3226
-97.9022
-96.3681
-94.7469
-93.0666
-91.3513
-89.6301
-87.9248
-86.257
-84.6428
-83.0955
-81.6243
-80.2345
-78.9287
-77.7152
-76.579
-75.522
-74.5407
-73.6305
-72.7867
-72.0049
-71.2802
-70.6084
-69.9851
-69.4061
-68.8676
-68.3658
-67.8971
-67.4581
-67.0456
-66.6568
-66.2888
-65.939
-65.6052
-65.2852
-64.9772
-64.6792
-64.3897
-64.1072
-63.8304
-63.5583
-63.2897
-63.0238
-62.7595
-62.4962
-62.2332
-61.97
-61.7059
-61.4406
-61.1735
-60.9044
-60.633
-60.3588
-60.0818
-59.8017
-59.5184
-59.2316
-58.9414
-58.6475
-58.35
-58.0487
-57.7435
-57.4344
-57.1214
-56.8046
-56.4838
-56.159
-55.8302
-55.4975
-55.1608
-54.8202
-54.4757
-54.1272
-53.7749
-53.4187
-53.0586
-52.6947
-52.3269
-51.9553
-51.5798
-51.2006
-50.8176
-50.4308
-50.0402
-49.6458
-49.2477
-48.846
-48.4404
-48.0312
-47.6182
-47.2015
-46.7811
-46.3569
-45.9289
-45.4973
-45.0619
-44.6228
-44.18
-43.7334
-43.283
-42.8288
-42.3708
-41.9091
-41.4435
-40.9742
-40.501
-40.0239
-39.543
-39.0582
-38.5694
-38.0767
-37.5801
-37.0795
-36.575
-36.0663
-35.5537
-35.0369
-34.516
-33.991
-33.4618
-32.9284
-32.3908
-31.8489
-31.3027
-30.7522
-30.1973
-29.6381
-29.0744
-28.5061
-27.9333
-27.3558
-26.7736
-26.1866
-25.5947
-24.9979
-24.3958
-23.7888
-23.176
-22.5575
-21.9338
-21.3019
-20.6675
-20.0188
-19.373
-18.7059
-18.0433
-17.3615
-16.6733
-15.9798
-15.2725
-14.5679
-13.8794
-104.039
-104.067
-104.127
-104.217
-104.329
-104.46
-104.612
-104.787
-104.987
-105.21
-105.452
-105.713
-105.989
-106.277
-106.568
-106.851
-107.113
-107.338
-107.508
-107.601
-107.596
-107.469
-107.198
-106.763
-106.146
-105.319
-104.288
-103.053
-101.631
-100.054
-98.3352
-96.5153
-94.6307
-92.7121
-90.7987
-88.9159
-87.0897
-85.3378
-83.6739
-82.1054
-80.637
-79.2697
-78.0046
-76.831
-75.7446
-74.74
-73.8114
-72.953
-72.1591
-71.4245
-70.7444
-70.114
-69.529
-68.9853
-68.4789
-68.0061
-67.5633
-67.1474
-66.7552
-66.384
-66.031
-65.694
-65.3708
-65.0596
-64.7584
-64.4656
-64.1798
-63.8999
-63.6245
-63.3528
-63.0837
-62.8163
-62.55
-62.2841
-62.0181
-61.7513
-61.4833
-61.2138
-60.9422
-60.6684
-60.3921
-60.1131
-59.8311
-59.5459
-59.2573
-58.9654
-58.6699
-58.3709
-58.0682
-57.7616
-57.4513
-57.1372
-56.8192
-56.4974
-56.1716
-55.8419
-55.5084
-55.1709
-54.8296
-54.4844
-54.1353
-53.7823
-53.4255
-53.065
-52.7005
-52.3323
-51.9602
-51.5844
-51.2048
-50.8214
-50.4343
-50.0434
-49.6488
-49.2505
-48.8484
-48.4427
-48.0332
-47.6201
-47.2032
-46.7826
-46.3582
-45.9302
-45.4984
-45.0629
-44.6237
-44.1808
-43.7341
-43.2836
-42.8293
-42.3713
-41.9095
-41.4439
-40.9745
-40.5012
-40.0241
-39.5432
-39.0583
-38.5695
-38.0768
-37.5802
-37.0795
-36.5749
-36.0663
-35.5536
-35.0368
-34.5159
-33.9909
-33.4617
-32.9283
-32.3907
-31.8488
-31.3027
-30.7522
-30.1973
-29.6381
-29.0745
-28.5063
-27.9335
-27.3561
-26.774
-26.1872
-25.5955
-24.9989
-24.3973
-23.7903
-23.1785
-22.56
-21.9378
-21.3062
-20.6734
-20.0268
-19.3819
-18.7206
-18.0583
-17.3857
-16.702
-16.0198
-15.3268
-14.6401
-13.9694
-104.953
-104.972
-105.018
-105.092
-105.198
-105.353
-105.549
-105.779
-106.042
-106.343
-106.688
-107.073
-107.489
-107.929
-108.39
-108.86
-109.327
-109.768
-110.16
-110.475
-110.68
-110.743
-110.626
-110.302
-109.745
-108.912
-107.816
-106.447
-104.838
-103.032
-101.043
-98.9351
-96.7542
-94.5442
-92.3584
-90.2282
-88.1846
-86.2464
-84.4254
-82.7277
-81.156
-79.71
-78.3798
-77.1563
-76.031
-74.9957
-74.0425
-73.164
-72.3534
-71.6049
-70.913
-70.2726
-69.679
-69.1279
-68.6151
-68.1365
-67.6887
-67.268
-66.8714
-66.4959
-66.1387
-65.7977
-65.4704
-65.1552
-64.8499
-64.5532
-64.2635
-63.9797
-63.7005
-63.425
-63.1522
-62.8812
-62.6115
-62.3423
-62.073
-61.803
-61.532
-61.2596
-60.9853
-60.7089
-60.4301
-60.1488
-59.8645
-59.5772
-59.2866
-58.9927
-58.6955
-58.3947
-58.0904
-57.7824
-57.4707
-57.1552
-56.836
-56.513
-56.1861
-55.8554
-55.5209
-55.1825
-54.8404
-54.4943
-54.1445
-53.7908
-53.4334
-53.0723
-52.7073
-52.3385
-51.9659
-51.5896
-51.2096
-50.8258
-50.4384
-50.0472
-49.6523
-49.2536
-48.8513
-48.4453
-48.0356
-47.6223
-47.2051
-46.7843
-46.3598
-45.9316
-45.4997
-45.0641
-44.6248
-44.1818
-43.7349
-43.2843
-42.83
-42.3719
-41.91
-41.4444
-40.9749
-40.5016
-40.0244
-39.5434
-39.0585
-38.5697
-38.0769
-37.5802
-37.0796
-36.575
-36.0663
-35.5536
-35.0368
-34.5159
-33.9909
-33.4617
-32.9283
-32.3907
-31.8488
-31.3026
-30.7522
-30.1974
-29.6382
-29.0746
-28.5065
-27.9338
-27.3565
-26.7745
-26.1878
-25.5964
-25
-24.3988
-23.7921
-23.1809
-22.563
-21.9418
-21.3112
-20.6796
-20.0354
-19.3916
-18.7355
-18.0745
-17.4104
-16.7317
-16.0599
-15.3807
-14.7058
-14.0522
-105.659
-105.698
-105.828
-105.98
-106.157
-106.354
-106.598
-106.904
-107.276
-107.698
-108.165
-108.681
-109.262
-109.912
-110.617
-111.37
-112.145
-112.925
-113.672
-114.351
-114.906
-115.286
-115.438
-115.308
-114.86
-114.015
-112.806
-111.224
-109.328
-107.176
-104.79
-102.261
-99.644
-97.0126
-94.4339
-91.9559
-89.6123
-87.4214
-85.3906
-83.5215
-81.8107
-80.2751
-78.858
-77.5677
-76.3909
-75.3151
-74.3294
-73.4241
-72.5913
-71.824
-71.1161
-70.4621
-69.8571
-69.2962
-68.7749
-68.2889
-67.8344
-67.4078
-67.0056
-66.6246
-66.2623
-65.9162
-65.5841
-65.2639
-64.9538
-64.6524
-64.3581
-64.0697
-63.7861
-63.5062
-63.2291
-62.9541
-62.6804
-62.4074
-62.1343
-61.8609
-61.5865
-61.3108
-61.0335
-60.7542
-60.4726
-60.1886
-59.9018
-59.6121
-59.3193
-59.0233
-58.724
-58.4214
-58.1153
-57.8056
-57.4923
-57.1754
-56.8548
-56.5304
-56.2023
-55.8705
-55.5349
-55.1956
-54.8525
-54.5055
-54.1549
-53.8005
-53.4424
-53.0805
-52.7149
-52.3454
-51.9723
-51.5955
-51.2151
-50.8309
-50.4431
-50.0515
-49.6562
-49.2572
-48.8546
-48.4483
-48.0384
-47.6247
-47.2074
-46.7864
-46.3617
-45.9333
-45.5013
-45.0656
-44.6261
-44.1829
-43.7359
-43.2852
-42.8308
-42.3726
-41.9106
-41.4449
-40.9754
-40.502
-40.0248
-39.5437
-39.0588
-38.5699
-38.0771
-37.5804
-37.0797
-36.5751
-36.0664
-35.5536
-35.0368
-34.5159
-33.9908
-33.4617
-32.9283
-32.3906
-31.8488
-31.3026
-30.7522
-30.1974
-29.6383
-29.0748
-28.5067
-27.9341
-27.3569
-26.7751
-26.1885
-25.5973
-25.0012
-24.4003
-23.7941
-23.1835
-22.5663
-21.9458
-21.3167
-20.6859
-20.0447
-19.4018
-18.7504
-18.0924
-17.4341
-16.7633
-16.0991
-15.4313
-14.7681
-14.1279
-106.586
-106.638
-106.776
-106.943
-107.134
-107.398
-107.726
-108.103
-108.542
-109.066
-109.695
-110.448
-111.311
-112.264
-113.315
-114.464
-115.705
-117.013
-118.349
-119.644
-120.816
-121.746
-122.333
-122.483
-122.128
-121.241
-119.847
-117.959
-115.665
-113.016
-110.072
-106.92
-103.652
-100.385
-97.2177
-94.231
-91.4625
-88.9252
-86.616
-84.5284
-82.6505
-80.9672
-79.4471
-78.0744
-76.8319
-75.7036
-74.6753
-73.7351
-72.8733
-72.0817
-71.3534
-70.6823
-70.0628
-69.4897
-68.958
-68.463
-68.0005
-67.5665
-67.1575
-66.7702
-66.4017
-66.0495
-65.7115
-65.3855
-65.0698
-64.7628
-64.4632
-64.1695
-63.8808
-63.5959
-63.3141
-63.0346
-62.7564
-62.4791
-62.2019
-61.9246
-61.6465
-61.3673
-61.0865
-60.804
-60.5194
-60.2324
-59.9429
-59.6505
-59.3552
-59.0569
-58.7555
-58.4508
-58.1428
-57.8312
-57.5162
-57.1977
-56.8755
-56.5497
-56.2203
-55.8872
-55.5504
-55.21
-54.8659
-54.518
-54.1664
-53.8111
-53.4522
-53.0896
-52.7232
-52.3532
-51.9795
-51.6022
-51.2212
-50.8366
-50.4483
-50.0563
-49.6606
-49.2613
-48.8583
-48.4517
-48.0414
-47.6275
-47.2099
-46.7887
-46.3638
-45.9352
-45.503
-45.0671
-44.6275
-44.1842
-43.7371
-43.2862
-42.8317
-42.3734
-41.9114
-41.4456
-40.976
-40.5026
-40.0253
-39.5441
-39.0591
-38.5702
-38.0773
-37.5806
-37.0799
-36.5752
-36.0665
-35.5537
-35.0368
-34.5159
-33.9909
-33.4617
-32.9283
-32.3907
-31.8488
-31.3027
-30.7523
-30.1975
-29.6384
-29.0749
-28.5069
-27.9344
-27.3573
-26.7756
-26.1893
-25.5983
-25.0025
-24.402
-23.7962
-23.1861
-22.5698
-21.95
-21.3224
-20.6926
-20.0541
-19.4126
-18.7655
-18.1107
-17.4577
-16.7947
-16.1362
-15.48
-14.8265
-14.1951
-107.353
-107.409
-107.528
-107.728
-108.004
-108.374
-108.812
-109.322
-109.924
-110.638
-111.468
-112.427
-113.559
-114.895
-116.449
-118.21
-120.173
-122.335
-124.663
-127.035
-129.238
-131.048
-132.295
-132.846
-132.556
-131.694
-130.067
-127.735
-124.81
-121.414
-117.65
-113.591
-109.364
-105.12
-101.048
-97.2759
-93.8699
-90.8337
-88.1456
-85.7728
-83.6833
-81.8225
-80.1666
-78.688
-77.3616
-76.1658
-75.0827
-74.0976
-73.1988
-72.3767
-71.6232
-70.9313
-70.2946
-69.7072
-69.1633
-68.6579
-68.1861
-67.7438
-67.3269
-66.9321
-66.5564
-66.1972
-65.8523
-65.5197
-65.1975
-64.8842
-64.5784
-64.2788
-63.9844
-63.694
-63.4069
-63.1222
-62.8391
-62.557
-62.2755
-61.9939
-61.7117
-61.4286
-61.1441
-60.858
-60.5701
-60.2799
-59.9874
-59.6922
-59.3943
-59.0935
-58.7897
-58.4828
-58.1726
-57.8591
-57.5422
-57.2219
-56.8981
-56.5707
-56.2398
-55.9054
-55.5673
-55.2257
-54.8805
-54.5315
-54.179
-53.8228
-53.463
-53.0995
-52.7325
-52.3617
-51.9874
-51.6094
-51.2279
-50.8427
-50.4539
-50.0615
-49.6654
-49.2657
-48.8623
-48.4554
-48.0448
-47.6306
-47.2128
-46.7913
-46.3661
-45.9374
-45.505
-45.0689
-44.6291
-44.1856
-43.7383
-43.2874
-42.8327
-42.3744
-41.9123
-41.4464
-40.9767
-40.5032
-40.0258
-39.5446
-39.0595
-38.5705
-38.0776
-37.5808
-37.08
-36.5753
-36.0666
-35.5538
-35.0369
-34.516
-33.9909
-33.4617
-32.9283
-32.3907
-31.8488
-31.3027
-30.7524
-30.1977
-29.6386
-29.0751
-28.5072
-27.9347
-27.3578
-26.7762
-26.1901
-25.5993
-25.0038
-24.4037
-23.7985
-23.1888
-22.5734
-21.9543
-21.3283
-20.6994
-20.0635
-19.4238
-18.7804
-18.1295
-17.481
-16.8248
-16.1725
-15.5255
-14.88
-14.2568
-107.947
-108.02
-108.216
-108.489
-108.857
-109.306
-109.817
-110.38
-111.056
-111.932
-113.041
-114.394
-115.992
-117.845
-119.992
-122.53
-125.568
-129.113
-132.985
-136.879
-140.472
-143.516
-145.793
-147.081
-147.216
-146.194
-143.969
-140.701
-136.648
-132.135
-127.331
-122.275
-116.998
-111.585
-106.282
-101.357
-96.9894
-93.2198
-90.0043
-87.2729
-84.8916
-82.8177
-81.0011
-79.3983
-77.9731
-76.6969
-75.5477
-74.5081
-73.5646
-72.706
-71.923
-71.2073
-70.5512
-69.9477
-69.3903
-68.8732
-68.3911
-67.9392
-67.5133
-67.1099
-66.7259
-66.3587
-66.006
-65.6658
-65.3363
-65.0159
-64.7032
-64.3971
-64.0963
-63.7999
-63.5069
-63.2166
-62.9281
-62.641
-62.3546
-62.0684
-61.7818
-61.4944
-61.2059
-60.9161
-60.6245
-60.331
-60.0353
-59.7371
-59.4363
-59.1328
-58.8265
-58.5171
-58.2046
-57.889
-57.5702
-57.248
-56.9224
-56.5933
-56.2609
-55.925
-55.5856
-55.2427
-54.8962
-54.5461
-54.1925
-53.8354
-53.4746
-53.1103
-52.7424
-52.371
-51.996
-51.6174
-51.2352
-50.8494
-50.4601
-50.0671
-49.6706
-49.2705
-48.8667
-48.4594
-48.0485
-47.634
-47.2159
-46.7941
-46.3687
-45.9397
-45.5071
-45.0708
-44.6308
-44.1871
-43.7398
-43.2887
-42.8339
-42.3754
-41.9132
-41.4472
-40.9774
-40.5038
-40.0264
-39.5451
-39.0599
-38.5709
-38.078
-37.5811
-37.0803
-36.5755
-36.0667
-35.5539
-35.037
-34.516
-33.991
-33.4617
-32.9283
-32.3907
-31.8489
-31.3028
-30.7525
-30.1978
-29.6388
-29.0753
-28.5074
-27.9351
-27.3582
-26.7768
-26.1909
-25.6004
-25.0052
-24.4054
-23.8007
-23.1916
-22.577
-21.9587
-21.3342
-20.7064
-20.0729
-19.4353
-18.7949
-18.1482
-17.5034
-16.8539
-16.2072
-15.5673
-14.9301
-14.3126
-108.389
-108.503
-108.756
-109.097
-109.539
-110.068
-110.72
-111.468
-112.361
-113.454
-114.786
-116.399
-118.358
-120.756
-123.73
-127.445
-132.017
-137.356
-143.094
-148.794
-154.076
-158.647
-162.233
-164.465
-165.057
-163.65
-160.403
-155.651
-149.92
-143.826
-137.772
-131.779
-125.638
-119.193
-112.603
-106.32
-100.738
-96.0166
-92.1703
-88.9281
-86.2032
-83.8865
-81.8936
-80.1585
-78.63
-77.2699
-76.0506
-74.9524
-73.96
-73.0616
-72.2469
-71.506
-70.8298
-70.2099
-69.6386
-69.1091
-68.6156
-68.153
-67.7169
-67.3037
-66.9103
-66.5339
-66.1723
-65.8234
-65.4856
-65.1573
-64.8371
-64.5237
-64.2159
-63.9129
-63.6135
-63.3171
-63.023
-62.7304
-62.4388
-62.1476
-61.8563
-61.5644
-61.2717
-60.9778
-60.6824
-60.3853
-60.0862
-59.7848
-59.481
-59.1747
-58.8656
-58.5536
-58.2388
-57.9209
-57.5999
-57.2757
-56.9483
-56.6175
-56.2834
-55.9459
-55.6051
-55.2608
-54.913
-54.5617
-54.207
-53.8488
-53.4871
-53.1218
-52.7532
-52.3809
-52.0052
-51.6259
-51.243
-50.8566
-50.4667
-50.0732
-49.6762
-49.2756
-48.8715
-48.4637
-48.0525
-47.6376
-47.2192
-46.7972
-46.3715
-45.9422
-45.5093
-45.0728
-44.6327
-44.1888
-43.7413
-43.2901
-42.8352
-42.3766
-41.9143
-41.4482
-40.9782
-40.5045
-40.027
-39.5457
-39.0604
-38.5713
-38.0783
-37.5814
-37.0805
-36.5757
-36.0669
-35.554
-35.0371
-34.5161
-33.991
-33.4618
-32.9284
-32.3908
-31.849
-31.3029
-30.7526
-30.1979
-29.6389
-29.0755
-28.5077
-27.9354
-27.3587
-26.7775
-26.1918
-25.6015
-25.0066
-24.4072
-23.803
-23.1944
-22.5807
-21.9631
-21.34
-20.7135
-20.082
-19.4467
-18.8091
-18.1664
-17.5252
-16.8815
-16.2398
-15.6063
-14.9762
-14.3631
-108.474
-108.628
-108.916
-109.305
-109.79
-110.399
-111.151
-112.076
-113.198
-114.54
-116.143
-118.11
-120.589
-123.693
-127.595
-132.495
-138.488
-145.398
-152.757
-160.149
-167.279
-173.792
-179.142
-182.657
-183.681
-182.446
-178.65
-172.614
-164.898
-156.328
-147.974
-140.423
-133.367
-126.234
-118.74
-111.294
-104.589
-98.9578
-94.3457
-90.5733
-87.4814
-84.9196
-82.7591
-80.9021
-79.2791
-77.8428
-76.5608
-75.4091
-74.3706
-73.4331
-72.5864
-71.8206
-71.1251
-70.4896
-69.9049
-69.3632
-68.8581
-68.3841
-67.937
-67.513
-67.1089
-66.7222
-66.3505
-65.9921
-65.6451
-65.3081
-64.9795
-64.6581
-64.3428
-64.0325
-63.7264
-63.4236
-63.1233
-62.8248
-62.5276
-62.2311
-61.9348
-61.6382
-61.341
-61.0429
-60.7435
-60.4426
-60.1399
-59.8351
-59.5281
-59.2187
-58.9068
-58.5922
-58.2748
-57.9546
-57.6314
-57.3051
-56.9756
-56.643
-56.3071
-55.968
-55.6256
-55.2799
-54.9308
-54.5783
-54.2224
-53.8631
-53.5003
-53.1341
-52.7645
-52.3915
-52.0149
-51.6349
-51.2513
-50.8642
-50.4737
-50.0797
-49.6822
-49.2811
-48.8765
-48.4684
-48.0567
-47.6416
-47.2228
-46.8005
-46.3745
-45.9449
-45.5118
-45.075
-44.6347
-44.1907
-43.743
-43.2917
-42.8366
-42.3779
-41.9154
-41.4492
-40.9791
-40.5053
-40.0277
-39.5463
-39.061
-38.5718
-38.0787
-37.5817
-37.0808
-36.576
-36.0671
-35.5542
-35.0373
-34.5162
-33.9911
-33.4619
-32.9285
-32.3909
-31.8491
-31.3031
-30.7527
-30.1981
-29.6391
-29.0757
-28.5079
-27.9357
-27.3592
-26.7781
-26.1926
-25.6026
-25.008
-24.4089
-23.8052
-23.1971
-22.5843
-21.9675
-21.3457
-20.7205
-20.091
-19.4579
-18.8229
-18.1838
-17.5461
-16.9073
-16.2707
-15.6423
-15.0181
-14.4093
-108.212
-108.401
-108.748
-109.205
-109.745
-110.399
-111.181
-112.159
-113.36
-114.806
-116.578
-118.842
-121.745
-125.467
-130.137
-136.037
-143.227
-151.467
-160.324
-169.505
-178.778
-187.741
-195.567
-201.184
-203.742
-203.084
-198.939
-191.73
-181.967
-169.932
-157.818
-147.647
-139.494
-131.709
-123.622
-115.401
-107.853
-101.446
-96.237
-92.0066
-88.5784
-85.802
-83.516
-81.5761
-79.8839
-78.3859
-77.0535
-75.8625
-74.7903
-73.8208
-72.9444
-72.1533
-71.4376
-70.786
-70.1877
-69.6334
-69.1161
-68.63
-68.1709
-67.7349
-67.3192
-66.9211
-66.5387
-66.1699
-65.8131
-65.4667
-65.1291
-64.7993
-64.476
-64.1583
-63.845
-63.5352
-63.2284
-62.9237
-62.6207
-62.3186
-62.017
-61.7155
-61.4136
-61.1111
-60.8075
-60.5026
-60.1961
-59.8878
-59.5775
-59.2649
-58.95
-58.6326
-58.3126
-57.9899
-57.6643
-57.3359
-57.0044
-56.6698
-56.3321
-55.9913
-55.6472
-55.3
-54.9495
-54.5957
-54.2385
-53.878
-53.5142
-53.1471
-52.7766
-52.4026
-52.0252
-51.6443
-51.26
-50.8723
-50.4811
-50.0866
-49.6885
-49.287
-48.8819
-48.4733
-48.0613
-47.6457
-47.2266
-46.8039
-46.3776
-45.9478
-45.5144
-45.0774
-44.6369
-44.1927
-43.7448
-43.2933
-42.8381
-42.3792
-41.9166
-41.4502
-40.98
-40.5061
-40.0285
-39.547
-39.0616
-38.5724
-38.0792
-37.5821
-37.0812
-36.5763
-36.0674
-35.5544
-35.0374
-34.5164
-33.9912
-33.462
-32.9286
-32.391
-31.8492
-31.3032
-30.7528
-30.1982
-29.6392
-29.0758
-28.5081
-27.9361
-27.3596
-26.7788
-26.1935
-25.6036
-25.0094
-24.4106
-23.8074
-23.1998
-22.5877
-21.9718
-21.3512
-20.7273
-20.0996
-19.4686
-18.836
-18.2004
-17.5658
-16.9314
-16.2993
-15.6752
-15.0564
-14.4511
-107.798
-108.03
-108.476
-109.021
-109.638
-110.344
-111.161
-112.154
-113.366
-114.843
-116.687
-119.082
-122.211
-126.219
-131.233
-137.488
-145.114
-154.006
-163.871
-174.409
-185.27
-195.805
-205.038
-211.767
-215.404
-214.836
-209.896
-201.446
-190.799
-177.551
-163.193
-151.501
-143.102
-135.341
-127.059
-118.293
-110.03