/*--------------------------------*- C++ -*----------------------------------*\
| =========                 |                                                 |
| \\      /  F ield         | OpenFOAM: The Open Source CFD Toolbox           |
|  \\    /   O peration     | Version:  2.1.x                                 |
|   \\  /    A nd           | Web:      www.OpenFOAM.org                      |
|    \\/     M anipulation  |                                                 |
\*---------------------------------------------------------------------------*/
FoamFile
{
    version     2.0;
    format      ascii;
    class       surfaceScalarField;
    location    "0.006";
    object      phi;
}
// * * * * * * * * * * * * * * * * * * * * * * * * * * * * * * * * * * * * * //

dimensions      [0 3 -1 0 0 0 0];

internalField   nonuniform List<scalar> 
24170
(
1.93704e-06
1.21835e-06
1.16384e-06
7.73206e-07
8.38223e-07
3.25616e-07
7.01072e-07
1.37151e-07
6.36278e-07
6.47937e-08
6.03551e-07
3.27273e-08
5.93247e-07
1.0304e-08
5.85516e-07
7.73147e-09
5.68557e-07
1.69591e-08
5.57874e-07
1.06824e-08
5.56794e-07
1.0801e-09
5.62098e-07
-5.30378e-09
5.64506e-07
-2.40794e-09
5.68191e-07
-3.68503e-09
5.72891e-07
-4.70028e-09
5.77697e-07
-4.80615e-09
5.72515e-07
5.18216e-09
-5.07304e-08
6.23245e-07
3.39772e-06
1.26134e-06
2.8965e-06
1.27442e-06
2.5122e-06
7.09913e-07
2.24568e-06
4.03677e-07
2.06445e-06
2.46024e-07
1.95179e-06
1.45379e-07
1.8866e-06
7.55038e-08
1.83371e-06
6.06132e-08
1.78304e-06
6.76312e-08
1.74847e-06
4.52533e-08
1.73404e-06
1.55145e-08
1.72991e-06
-1.17855e-09
1.72502e-06
2.48622e-09
1.72755e-06
-6.21657e-09
1.7283e-06
-5.45261e-09
1.73302e-06
-9.5248e-09
1.74996e-06
-1.17602e-08
-1.02324e-07
1.80155e-06
4.08493e-06
1.10306e-06
4.00537e-06
1.35399e-06
3.84614e-06
8.69141e-07
3.66557e-06
5.84241e-07
3.4912e-06
4.20394e-07
3.35677e-06
2.79819e-07
3.2627e-06
1.69572e-07
3.17904e-06
1.44275e-07
3.10177e-06
1.44896e-07
3.04338e-06
1.03643e-07
3.00608e-06
5.28195e-08
2.98677e-06
1.81291e-08
2.96735e-06
2.19046e-08
2.96454e-06
-3.40469e-09
2.95927e-06
-1.80218e-10
2.9539e-06
-4.15701e-09
2.98655e-06
-4.44122e-08
-1.32462e-07
3.01669e-06
4.59696e-06
8.8417e-07
4.67221e-06
1.27874e-06
4.66273e-06
8.78622e-07
4.63516e-06
6.11816e-07
4.56255e-06
4.93004e-07
4.48717e-06
3.55194e-07
4.42868e-06
2.28063e-07
4.37529e-06
1.97664e-07
4.32711e-06
1.93077e-07
4.29166e-06
1.39088e-07
4.26424e-06
8.02436e-08
4.24519e-06
3.71748e-08
4.22692e-06
4.01755e-08
4.21854e-06
4.97734e-09
4.20389e-06
1.44759e-08
4.18181e-06
1.79184e-08
4.23573e-06
-9.83307e-08
-1.58481e-07
4.26175e-06
4.71277e-06
6.83734e-07
4.91643e-06
1.07507e-06
5.02975e-06
7.65305e-07
5.14199e-06
4.99575e-07
5.19017e-06
4.4482e-07
5.18459e-06
3.60775e-07
5.15297e-06
2.59689e-07
5.1244e-06
2.26227e-07
5.12305e-06
1.94428e-07
5.14666e-06
1.15478e-07
5.17789e-06
4.90154e-08
5.20811e-06
6.95834e-09
5.22865e-06
1.96312e-08
5.20066e-06
3.29654e-08
5.13569e-06
7.94477e-08
5.11945e-06
3.4157e-08
5.17454e-06
-1.53415e-07
-1.58473e-07
5.17453e-06
5.38094e-06
5.1731e-07
5.47715e-06
9.78863e-07
5.47899e-06
7.63468e-07
5.51741e-06
4.61148e-07
5.58095e-06
3.81283e-07
5.61571e-06
3.26014e-07
5.61039e-06
2.65011e-07
5.60009e-06
2.36521e-07
5.62239e-06
1.72134e-07
5.67934e-06
5.85237e-08
5.73915e-06
-1.07914e-08
5.77993e-06
-3.38187e-08
5.78791e-06
1.16497e-08
5.75201e-06
6.88669e-08
5.74716e-06
8.42968e-08
5.77352e-06
7.79243e-09
5.75521e-06
-1.351e-07
-9.23939e-08
5.68913e-06
5.65876e-06
2.6824e-07
5.87879e-06
7.5883e-07
5.96737e-06
6.74893e-07
5.98674e-06
4.41774e-07
6.0381e-06
3.29924e-07
6.07534e-06
2.88771e-07
6.09321e-06
2.47141e-07
6.11628e-06
2.13456e-07
6.15625e-06
1.32157e-07
6.19293e-06
2.18522e-08
6.2163e-06
-3.41671e-08
6.22134e-06
-3.88528e-08
6.22938e-06
3.601e-09
6.2536e-06
4.46516e-08
6.28086e-06
5.70327e-08
6.27433e-06
1.43275e-08
6.28163e-06
-1.42403e-07
-1.31894e-07
6.32113e-06
4.44909e-06
2.01267e-07
4.55733e-06
6.50586e-07
4.61793e-06
6.14292e-07
4.60559e-06
4.54119e-07
4.59064e-06
3.4487e-07
4.59055e-06
2.88869e-07
4.61442e-06
2.23269e-07
4.66707e-06
1.60801e-07
4.7273e-06
7.19278e-08
4.77122e-06
-2.20669e-08
4.79471e-06
-5.76612e-08
4.80539e-06
-4.95277e-08
4.82792e-06
-1.89254e-08
4.85624e-06
1.63282e-08
4.86493e-06
4.83443e-08
4.88159e-06
-2.33258e-09
4.94351e-06
-2.04322e-07
-1.75458e-07
4.98707e-06
5.13709e-06
2.36015e-07
5.27477e-06
5.12905e-07
5.36227e-06
5.26789e-07
5.3544e-06
4.61985e-07
5.31426e-06
3.85015e-07
5.30813e-06
2.94996e-07
5.34513e-06
1.86269e-07
5.41699e-06
8.89475e-08
5.48933e-06
-4.11415e-10
5.54199e-06
-7.47289e-08
5.57059e-06
-8.62676e-08
5.58386e-06
-6.27951e-08
5.59011e-06
-2.51748e-08
5.58682e-06
1.96222e-08
5.60504e-06
3.01207e-08
5.65094e-06
-4.82291e-08
5.66352e-06
-2.16908e-07
-1.38788e-07
5.62685e-06
5.93261e-06
3.16502e-07
6.04421e-06
4.01307e-07
6.15047e-06
4.20528e-07
6.22332e-06
3.8913e-07
6.26326e-06
3.45083e-07
6.29576e-06
2.62493e-07
6.32287e-06
1.59158e-07
6.34263e-06
6.91839e-08
6.35258e-06
-1.03597e-08
6.34867e-06
-7.08213e-08
6.34644e-06
-8.40314e-08
6.34842e-06
-6.47741e-08
6.36764e-06
-4.43965e-08
6.40062e-06
-1.33541e-08
6.44786e-06
-1.71191e-08
6.48602e-06
-8.63946e-08
6.46018e-06
-1.91066e-07
-1.32967e-07
6.45436e-06
7.2185e-06
1.70726e-07
7.30116e-06
3.18643e-07
7.3189e-06
4.02784e-07
7.31666e-06
3.91369e-07
7.33848e-06
3.23271e-07
7.37297e-06
2.27995e-07
7.40473e-06
1.27397e-07
7.41745e-06
5.64655e-08
7.40577e-06
1.31982e-09
7.36797e-06
-3.30207e-08
7.32857e-06
-4.46318e-08
7.30324e-06
-3.94371e-08
7.30211e-06
-4.3271e-08
7.33724e-06
-4.84849e-08
7.39126e-06
-7.11348e-08
7.41737e-06
-1.12505e-07
7.39971e-06
-1.73407e-07
-2.36317e-07
7.50306e-06
8.10763e-06
3.35255e-07
8.16378e-06
2.62488e-07
8.2294e-06
3.37171e-07
8.31736e-06
3.03406e-07
8.43107e-06
2.09556e-07
8.52732e-06
1.31749e-07
8.57714e-06
7.75718e-08
8.57425e-06
5.93608e-08
8.53136e-06
4.42057e-08
8.47979e-06
1.85547e-08
8.44396e-06
-8.80446e-09
8.4381e-06
-3.35736e-08
8.46079e-06
-6.59646e-08
8.51423e-06
-1.01927e-07
8.57238e-06
-1.29278e-07
8.60064e-06
-1.40772e-07
8.64865e-06
-2.21412e-07
-3.71795e-07
8.78413e-06
9.7145e-06
2.82409e-07
9.67726e-06
2.9973e-07
9.7052e-06
3.09232e-07
9.77633e-06
2.32276e-07
9.84885e-06
1.37035e-07
9.89401e-06
8.65857e-08
9.89645e-06
7.51347e-08
9.87794e-06
7.78663e-08
9.85582e-06
6.63323e-08
9.83839e-06
3.59833e-08
9.83599e-06
-6.40384e-09
9.84544e-06
-4.30273e-08
9.86934e-06
-8.98641e-08
9.9103e-06
-1.42887e-07
9.95303e-06
-1.72007e-07
9.98337e-06
-1.71114e-07
9.98583e-06
-2.23873e-07
-3.88816e-07
1.00029e-05
1.12383e-05
2.59084e-09
1.13619e-05
1.76127e-07
1.13749e-05
2.96232e-07
1.13393e-05
2.67879e-07
1.12733e-05
2.0299e-07
1.12365e-05
1.23421e-07
1.12544e-05
5.72314e-08
1.13233e-05
8.96634e-09
1.142e-05
-3.03533e-08
1.15103e-05
-5.43472e-08
1.15822e-05
-7.83105e-08
1.16342e-05
-9.49872e-08
1.16597e-05
-1.15335e-07
1.16633e-05
-1.46554e-07
1.16639e-05
-1.72584e-07
1.16612e-05
-1.68408e-07
1.15911e-05
-1.53775e-07
-3.39773e-07
1.15421e-05
1.27993e-05
1.56002e-07
1.28151e-05
1.60362e-07
1.29778e-05
1.33466e-07
1.31409e-05
1.04807e-07
1.32795e-05
6.43584e-08
1.33731e-05
2.98722e-08
1.34217e-05
8.5661e-09
1.34396e-05
-8.89609e-09
1.34513e-05
-4.20242e-08
1.34685e-05
-7.15232e-08
1.34951e-05
-1.04912e-07
1.35295e-05
-1.29398e-07
1.35523e-05
-1.38143e-07
1.35501e-05
-1.44415e-07
1.35532e-05
-1.7563e-07
1.36063e-05
-2.21514e-07
1.36139e-05
-1.61395e-07
-8.46741e-08
1.33588e-05
1.45953e-05
1.18754e-07
1.48475e-05
-9.18595e-08
1.509e-05
-1.0902e-07
1.52643e-05
-6.95371e-08
1.53645e-05
-3.58169e-08
1.54105e-05
-1.61644e-08
1.54339e-05
-1.48032e-08
1.54529e-05
-2.78572e-08
1.54771e-05
-6.62238e-08
1.55138e-05
-1.08246e-07
1.55528e-05
-1.43876e-07
1.55888e-05
-1.65483e-07
1.56197e-05
-1.68966e-07
1.56489e-05
-1.7364e-07
1.56649e-05
-1.91622e-07
1.56476e-05
-2.04238e-07
1.5673e-05
-1.86823e-07
-1.47748e-07
1.57361e-05
1.69256e-05
-3.49297e-08
1.72405e-05
-4.06795e-07
1.75938e-05
-4.62234e-07
1.78827e-05
-3.58478e-07
1.80668e-05
-2.19872e-07
1.81427e-05
-9.20975e-08
1.8151e-05
-2.30777e-08
1.81427e-05
-1.96053e-08
1.81397e-05
-6.32496e-08
1.81525e-05
-1.21013e-07
1.81736e-05
-1.64978e-07
1.81961e-05
-1.88025e-07
1.82192e-05
-1.91993e-07
1.82355e-05
-1.89943e-07
1.82163e-05
-1.72417e-07
1.81611e-05
-1.49027e-07
1.8171e-05
-1.96713e-07
-2.7719e-07
1.83004e-05
1.80848e-05
-1.91293e-07
1.78846e-05
-2.06584e-07
1.77436e-05
-3.21286e-07
1.77522e-05
-3.67051e-07
1.78508e-05
-3.18521e-07
1.79628e-05
-2.04075e-07
1.80367e-05
-9.70172e-08
1.80612e-05
-4.40552e-08
1.80419e-05
-4.39354e-08
1.80082e-05
-8.73548e-08
1.79911e-05
-1.47864e-07
1.80081e-05
-2.05003e-07
1.80586e-05
-2.42545e-07
1.81241e-05
-2.55393e-07
1.82063e-05
-2.54645e-07
1.83125e-05
-2.55262e-07
1.83401e-05
-2.24246e-07
-1.53689e-07
1.82166e-05
1.57569e-05
-2.96785e-07
1.56538e-05
-1.0341e-07
1.55494e-05
-2.1692e-07
1.55237e-05
-3.41334e-07
1.56012e-05
-3.95993e-07
1.57762e-05
-3.7913e-07
1.59833e-05
-3.04111e-07
1.61593e-05
-2.20067e-07
1.62722e-05
-1.56833e-07
1.63193e-05
-1.34431e-07
1.63248e-05
-1.53381e-07
1.63164e-05
-1.96546e-07
1.63153e-05
-2.41525e-07
1.63336e-05
-2.73662e-07
1.63628e-05
-2.83797e-07
1.63766e-05
-2.6908e-07
1.64065e-05
-2.542e-07
-2.57826e-07
1.65107e-05
1.41513e-05
-2.40989e-07
1.42922e-05
-2.44373e-07
1.43563e-05
-2.80938e-07
1.43493e-05
-3.3437e-07
1.42893e-05
-3.36048e-07
1.42407e-05
-3.30465e-07
1.42509e-05
-3.14278e-07
1.43165e-05
-2.85706e-07
1.44121e-05
-2.5244e-07
1.45065e-05
-2.28864e-07
1.45785e-05
-2.2536e-07
1.46187e-05
-2.36783e-07
1.46293e-05
-2.52102e-07
1.46149e-05
-2.59245e-07
1.45877e-05
-2.56547e-07
1.4568e-05
-2.49381e-07
1.45515e-05
-2.37723e-07
-2.16691e-07
1.45103e-05
1.2822e-05
-1.1485e-07
1.27622e-05
-1.84595e-07
1.2815e-05
-3.33801e-07
1.28772e-05
-3.96549e-07
1.2916e-05
-3.74808e-07
1.29274e-05
-3.41839e-07
1.29274e-05
-3.14287e-07
1.29342e-05
-2.92553e-07
1.29593e-05
-2.77512e-07
1.29983e-05
-2.6785e-07
1.3036e-05
-2.63053e-07
1.30623e-05
-2.63157e-07
1.30756e-05
-2.65319e-07
1.30784e-05
-2.62089e-07
1.30724e-05
-2.50579e-07
1.30566e-05
-2.33525e-07
1.30368e-05
-2.1792e-07
-2.10128e-07
1.30302e-05
1.14175e-05
-7.98024e-08
1.14643e-05
-2.31449e-07
1.15993e-05
-4.6876e-07
1.17412e-05
-5.38511e-07
1.18339e-05
-4.67412e-07
1.18571e-05
-3.65041e-07
1.18258e-05
-2.83026e-07
1.17738e-05
-2.40606e-07
1.17227e-05
-2.26377e-07
1.16829e-05
-2.28024e-07
1.16555e-05
-2.35678e-07
1.16374e-05
-2.45053e-07
1.1625e-05
-2.52935e-07
1.16169e-05
-2.54013e-07
1.16104e-05
-2.44078e-07
1.16067e-05
-2.29768e-07
1.16053e-05
-2.16578e-07
-2.08257e-07
1.16035e-05
9.86211e-06
-1.49183e-07
1.01299e-05
-4.99231e-07
1.0343e-05
-6.81859e-07
1.0428e-05
-6.2353e-07
1.04554e-05
-4.94824e-07
1.04709e-05
-3.80484e-07
1.04957e-05
-3.07911e-07
1.05375e-05
-2.8233e-07
1.05839e-05
-2.72787e-07
1.0623e-05
-2.67177e-07
1.065e-05
-2.62607e-07
1.06621e-05
-2.57194e-07
1.06635e-05
-2.54342e-07
1.06615e-05
-2.51982e-07
1.06612e-05
-2.43759e-07
1.06648e-05
-2.33381e-07
1.06689e-05
-2.20709e-07
-2.13758e-07
1.06744e-05
9.00302e-06
-2.33361e-07
9.19805e-06
-6.94261e-07
9.29933e-06
-7.83138e-07
9.33105e-06
-6.5525e-07
9.3633e-06
-5.27073e-07
9.42326e-06
-4.40448e-07
9.49624e-06
-3.80887e-07
9.54289e-06
-3.28982e-07
9.54862e-06
-2.78516e-07
9.52288e-06
-2.41442e-07
9.48546e-06
-2.25184e-07
9.45346e-06
-2.25192e-07
9.43541e-06
-2.36289e-07
9.43373e-06
-2.50308e-07
9.44609e-06
-2.56115e-07
9.46521e-06
-2.52506e-07
9.48429e-06
-2.39784e-07
-2.23382e-07
9.49391e-06
7.94728e-06
-3.74709e-07
8.17967e-06
-9.26651e-07
8.35515e-06
-9.58616e-07
8.46368e-06
-7.63781e-07
8.51297e-06
-5.76369e-07
8.56039e-06
-4.87862e-07
8.60903e-06
-4.29536e-07
8.65117e-06
-3.71114e-07
8.68261e-06
-3.09958e-07
8.70117e-06
-2.60001e-07
8.70387e-06
-2.27887e-07
8.6923e-06
-2.13619e-07
8.66922e-06
-2.13212e-07
8.63822e-06
-2.19308e-07
8.60641e-06
-2.24301e-07
8.57865e-06
-2.24751e-07
8.55768e-06
-2.18817e-07
-2.0943e-07
8.54373e-06
7.24723e-06
-6.02336e-07
7.45868e-06
-1.1381e-06
7.56811e-06
-1.06804e-06
7.59312e-06
-7.88783e-07
7.59793e-06
-5.81181e-07
7.59612e-06
-4.86058e-07
7.59471e-06
-4.28125e-07
7.59989e-06
-3.76296e-07
7.61653e-06
-3.26595e-07
7.64044e-06
-2.83909e-07
7.66624e-06
-2.53684e-07
7.68801e-06
-2.35392e-07
7.70161e-06
-2.2681e-07
7.70568e-06
-2.23376e-07
7.70169e-06
-2.20316e-07
7.69247e-06
-2.15534e-07
7.67989e-06
-2.06233e-07
-1.97466e-07
7.66793e-06
6.63911e-06
-7.11802e-07
6.78003e-06
-1.27902e-06
6.84618e-06
-1.13419e-06
6.85302e-06
-7.95618e-07
6.86565e-06
-5.93816e-07
6.87554e-06
-4.95946e-07
6.87289e-06
-4.25475e-07
6.85701e-06
-3.60416e-07
6.83362e-06
-3.03202e-07
6.80498e-06
-2.55273e-07
6.77295e-06
-2.21654e-07
6.73496e-06
-1.97402e-07
6.69083e-06
-1.82673e-07
6.64026e-06
-1.72809e-07
6.5876e-06
-1.67659e-07
6.53461e-06
-1.62538e-07
6.48484e-06
-1.5647e-07
-1.46572e-07
6.43395e-06
5.97908e-06
-8.46527e-07
6.07096e-06
-1.3709e-06
6.01802e-06
-1.08125e-06
5.93114e-06
-7.08738e-07
5.81434e-06
-4.77021e-07
5.6739e-06
-3.55502e-07
5.52854e-06
-2.80118e-07
5.39017e-06
-2.22043e-07
5.26465e-06
-1.77682e-07
5.1525e-06
-1.43127e-07
5.0508e-06
-1.1995e-07
4.95661e-06
-1.03217e-07
4.86842e-06
-9.44829e-08
4.7839e-06
-8.82862e-08
4.70499e-06
-8.87462e-08
4.62929e-06
-8.68369e-08
4.56052e-06
-8.77022e-08
-7.84243e-08
4.49237e-06
5.15166e-06
-1.06102e-06
4.86656e-06
-1.08579e-06
4.44784e-06
-6.62538e-07
4.10079e-06
-3.61687e-07
3.81211e-06
-1.8834e-07
3.56371e-06
-1.07104e-07
3.35342e-06
-6.98269e-08
3.18154e-06
-5.01605e-08
3.04312e-06
-3.92622e-08
2.93148e-06
-3.1494e-08
2.83854e-06
-2.70016e-08
2.75907e-06
-2.37535e-08
2.6875e-06
-2.2909e-08
2.62153e-06
-2.23124e-08
2.55733e-06
-2.45486e-08
2.4952e-06
-2.47139e-08
2.43837e-06
-3.08643e-08
-2.35114e-08
2.38345e-06
3.44034e-06
2.35455e-06
1.69201e-06
1.33032e-06
1.14199e-06
1.03488e-06
9.65054e-07
9.14893e-07
8.75631e-07
8.44137e-07
8.17136e-07
7.93382e-07
7.70473e-07
7.48161e-07
7.23612e-07
6.98898e-07
6.68034e-07
6.44523e-07
-1.36162e-07
1.36162e-07
-2.82109e-07
1.45947e-07
-4.28009e-07
1.459e-07
-5.74624e-07
1.46616e-07
-7.21453e-07
1.46828e-07
-8.68208e-07
1.46755e-07
-1.01454e-06
1.46336e-07
-1.16008e-06
1.45539e-07
-1.30444e-06
1.44354e-07
-1.44717e-06
1.42737e-07
-1.58775e-06
1.40579e-07
-1.7255e-06
1.37745e-07
-1.85967e-06
1.34176e-07
-1.98936e-06
1.29689e-07
-2.11352e-06
1.24152e-07
-2.23098e-06
1.17467e-07
-2.34052e-06
1.09534e-07
-2.44075e-06
1.00231e-07
-2.53025e-06
8.95011e-08
-2.60764e-06
7.73897e-08
-2.67147e-06
6.38329e-08
-2.72045e-06
4.89762e-08
-2.75325e-06
3.28075e-08
-2.76896e-06
1.57106e-08
-2.76641e-06
-2.55866e-09
-2.74445e-06
-2.19589e-08
-2.70299e-06
-4.14616e-08
-2.64199e-06
-6.0994e-08
-2.56181e-06
-8.01849e-08
-2.46297e-06
-9.88385e-08
-2.3464e-06
-1.16573e-07
-2.21317e-06
-1.33229e-07
-2.06467e-06
-1.48497e-07
-1.90245e-06
-1.62215e-07
-1.72826e-06
-1.74196e-07
-1.54395e-06
-1.84312e-07
-1.35145e-06
-1.92499e-07
-1.15274e-06
-1.98704e-07
-9.499e-07
-2.02843e-07
-7.44581e-07
-2.05319e-07
-5.38722e-07
-2.05859e-07
-3.34194e-07
-2.04528e-07
-1.32449e-07
-2.01745e-07
6.5491e-08
-1.9794e-07
2.58132e-07
-1.92641e-07
4.44459e-07
-1.86327e-07
6.23629e-07
-1.7917e-07
7.94959e-07
-1.7133e-07
9.57918e-07
-1.6296e-07
1.11212e-06
-1.54202e-07
1.25731e-06
-1.45187e-07
1.39333e-06
-1.36025e-07
1.52015e-06
-1.26814e-07
1.63779e-06
-1.17646e-07
1.74639e-06
-1.08602e-07
1.84615e-06
-9.97516e-08
1.93729e-06
-9.1146e-08
2.02012e-06
-8.28291e-08
2.09496e-06
-7.48437e-08
2.16219e-06
-6.72265e-08
2.22219e-06
-6.00006e-08
2.27537e-06
-5.3176e-08
2.32213e-06
-4.67637e-08
2.3629e-06
-4.07712e-08
2.3981e-06
-3.52023e-08
2.42815e-06
-3.00498e-08
2.45345e-06
-2.52964e-08
2.47439e-06
-2.09397e-08
2.49135e-06
-1.69635e-08
2.5047e-06
-1.33459e-08
2.51477e-06
-1.0074e-08
2.5219e-06
-7.12651e-09
2.52638e-06
-4.47815e-09
2.52848e-06
-2.10218e-09
2.52853e-06
-4.96408e-11
2.52668e-06
1.85043e-09
2.52321e-06
3.46486e-09
2.51832e-06
4.89916e-09
2.51215e-06
6.16667e-09
2.50488e-06
7.27144e-09
2.49664e-06
8.23831e-09
2.48756e-06
9.07894e-09
2.47775e-06
9.81346e-09
2.46729e-06
1.04596e-08
2.45628e-06
1.10042e-08
2.4448e-06
1.14866e-08
2.43287e-06
1.19287e-08
2.42056e-06
1.23053e-08
2.40796e-06
1.26054e-08
2.3951e-06
1.28527e-08
2.38205e-06
1.30593e-08
2.36882e-06
1.32251e-08
2.35547e-06
1.3354e-08
2.34201e-06
1.34606e-08
2.32846e-06
1.35476e-08
2.31485e-06
1.36057e-08
2.30121e-06
1.36451e-08
2.28753e-06
1.36737e-08
2.27384e-06
1.36896e-08
2.26015e-06
1.36901e-08
2.24648e-06
1.36778e-08
2.23282e-06
1.36557e-08
2.21919e-06
1.36266e-08
2.2056e-06
1.35925e-08
2.19205e-06
1.3553e-08
2.17854e-06
1.35073e-08
2.16508e-06
1.3457e-08
2.15168e-06
1.3405e-08
2.13833e-06
1.33523e-08
2.12503e-06
1.3298e-08
2.11179e-06
1.32403e-08
2.09861e-06
1.3179e-08
2.08549e-06
1.3116e-08
2.07244e-06
1.30539e-08
2.05945e-06
1.29933e-08
2.04651e-06
1.29328e-08
2.03364e-06
1.28701e-08
2.02084e-06
1.28049e-08
2.0081e-06
1.27388e-08
1.99543e-06
1.26733e-08
1.98282e-06
1.26095e-08
1.97027e-06
1.25466e-08
1.95779e-06
1.24834e-08
1.94537e-06
1.24194e-08
1.93301e-06
1.23546e-08
1.92072e-06
1.22895e-08
1.9085e-06
1.22247e-08
1.89634e-06
1.21609e-08
1.88424e-06
1.20988e-08
1.8722e-06
1.20384e-08
1.86022e-06
1.19788e-08
1.8483e-06
1.19184e-08
1.83645e-06
1.18563e-08
1.82465e-06
1.17933e-08
1.81292e-06
1.17312e-08
1.80125e-06
1.16719e-08
1.78963e-06
1.16152e-08
1.77808e-06
1.15593e-08
1.76657e-06
1.15017e-08
1.75513e-06
1.14415e-08
1.74375e-06
1.13802e-08
1.73243e-06
1.13209e-08
1.72117e-06
1.12654e-08
1.70995e-06
1.12126e-08
1.69879e-06
1.11599e-08
1.68769e-06
1.11054e-08
1.67664e-06
1.10492e-08
1.66565e-06
1.09933e-08
1.65471e-06
1.09402e-08
1.64381e-06
1.08919e-08
1.63297e-06
1.08476e-08
1.62216e-06
1.08055e-08
1.6114e-06
1.07644e-08
1.60067e-06
1.07254e-08
1.58998e-06
1.06903e-08
1.57932e-06
1.06612e-08
1.56868e-06
1.06425e-08
1.55805e-06
1.06294e-08
1.5474e-06
1.06424e-08
1.53676e-06
1.06406e-08
1.52604e-06
1.07252e-08
1.51535e-06
1.06897e-08
1.50436e-06
1.0985e-08
1.49365e-06
1.07159e-08
1.48197e-06
1.1674e-08
1.47145e-06
1.05215e-08
1.45816e-06
1.3289e-08
1.44834e-06
9.8205e-09
1.43202e-06
1.63212e-08
1.42311e-06
8.91012e-09
1.40261e-06
2.04998e-08
1.39313e-06
9.48383e-09
1.36791e-06
2.52169e-08
1.35482e-06
1.30956e-08
1.32106e-06
3.37591e-08
1.30292e-06
1.81335e-08
1.24735e-06
5.55749e-08
1.22219e-06
2.51631e-08
1.1135e-06
1.08685e-07
3.55546e-08
1.07795e-06
-1.36843e-07
2.73005e-07
-2.87876e-07
2.9698e-07
-4.38822e-07
2.96846e-07
-5.90871e-07
2.98665e-07
-7.43689e-07
2.99646e-07
-8.9699e-07
3.00057e-07
-1.05039e-06
2.99739e-07
-1.2035e-06
2.98641e-07
-1.35576e-06
2.96617e-07
-1.5065e-06
2.93476e-07
-1.65497e-06
2.89054e-07
-1.8003e-06
2.83075e-07
-1.94153e-06
2.754e-07
-2.07756e-06
2.65724e-07
-2.20716e-06
2.53749e-07
-2.32901e-06
2.39313e-07
-2.44172e-06
2.22245e-07
-2.54382e-06
2.02336e-07
-2.63378e-06
1.79463e-07
-2.71011e-06
1.53717e-07
-2.77134e-06
1.25065e-07
-2.81608e-06
9.37089e-08
-2.8431e-06
5.98349e-08
-2.85147e-06
2.40748e-08
-2.83955e-06
-1.44791e-08
-2.80711e-06
-5.44011e-08
-2.75376e-06
-9.48039e-08
-2.67947e-06
-1.35289e-07
-2.58465e-06
-1.75003e-07
-2.46989e-06
-2.13597e-07
-2.33612e-06
-2.50348e-07
-2.18452e-06
-2.84829e-07
-2.01651e-06
-3.16504e-07
-1.83367e-06
-3.45053e-07
-1.63778e-06
-3.70085e-07
-1.43073e-06
-3.91363e-07
-1.21446e-06
-4.08774e-07
-9.90889e-07
-4.2227e-07
-7.61877e-07
-4.31856e-07
-5.29493e-07
-4.37703e-07
-2.95304e-07
-4.40048e-07
-6.10137e-08
-4.38818e-07
1.72224e-07
-4.34982e-07
4.02741e-07
-4.28458e-07
6.29704e-07
-4.19604e-07
8.52159e-07
-4.08782e-07
1.06932e-06
-3.96327e-07
1.28053e-06
-3.82545e-07
1.48529e-06
-3.67719e-07
1.6832e-06
-3.52106e-07
1.87394e-06
-3.35933e-07
2.05732e-06
-3.19399e-07
2.23318e-06
-3.02676e-07
2.40145e-06
-2.85916e-07
2.5621e-06
-2.69254e-07
2.71515e-06
-2.52804e-07
2.86067e-06
-2.36661e-07
2.99874e-06
-2.20902e-07
3.12949e-06
-2.05597e-07
3.25307e-06
-1.90806e-07
3.36965e-06
-1.76574e-07
3.47941e-06
-1.62934e-07
3.58255e-06
-1.49909e-07
3.6793e-06
-1.37518e-07
3.76987e-06
-1.25772e-07
3.8545e-06
-1.1468e-07
3.93342e-06
-1.04222e-07
4.00689e-06
-9.44036e-08
4.07513e-06
-8.52081e-08
4.13839e-06
-7.66062e-08
4.19692e-06
-6.86016e-08
4.25094e-06
-6.1149e-08
4.30069e-06
-5.42313e-08
4.34643e-06
-4.78392e-08
4.38832e-06
-4.19359e-08
4.42663e-06
-3.64592e-08
4.46151e-06
-3.1418e-08
4.49319e-06
-2.67784e-08
4.52185e-06
-2.24972e-08
4.54769e-06
-1.85624e-08
4.57086e-06
-1.49316e-08
4.59153e-06
-1.15993e-08
4.60988e-06
-8.53594e-09
4.62605e-06
-5.71016e-09
4.6402e-06
-3.14062e-09
4.65247e-06
-7.86759e-10
4.66291e-06
1.48671e-09
4.67169e-06
3.53163e-09
4.67891e-06
5.37962e-09
4.68468e-06
7.08334e-09
4.68909e-06
8.64901e-09
4.69224e-06
1.00759e-08
4.69421e-06
1.13814e-08
4.69509e-06
1.2585e-08
4.69493e-06
1.37031e-08
4.69382e-06
1.4721e-08
4.69181e-06
1.56589e-08
4.68895e-06
1.65259e-08
4.68532e-06
1.73273e-08
4.68094e-06
1.80619e-08
4.67588e-06
1.87369e-08
4.67018e-06
1.9358e-08
4.66388e-06
1.99309e-08
4.65701e-06
2.04614e-08
4.64961e-06
2.0952e-08
4.64171e-06
2.1404e-08
4.63335e-06
2.18208e-08
4.62455e-06
2.2207e-08
4.61533e-06
2.25659e-08
4.60573e-06
2.28991e-08
4.59577e-06
2.32076e-08
4.58545e-06
2.34925e-08
4.57481e-06
2.37563e-08
4.56386e-06
2.40022e-08
4.55262e-06
2.42323e-08
4.54111e-06
2.44466e-08
4.52934e-06
2.46448e-08
4.51731e-06
2.48278e-08
4.50505e-06
2.49979e-08
4.49257e-06
2.51574e-08
4.47987e-06
2.53079e-08
4.46697e-06
2.54491e-08
4.45387e-06
2.55806e-08
4.44059e-06
2.57025e-08
4.42713e-06
2.58164e-08
4.41349e-06
2.59235e-08
4.39969e-06
2.60248e-08
4.38573e-06
2.61214e-08
4.37162e-06
2.62135e-08
4.35735e-06
2.6302e-08
4.34295e-06
2.63865e-08
4.3284e-06
2.64662e-08
4.31371e-06
2.65401e-08
4.2989e-06
2.66093e-08
4.28395e-06
2.66761e-08
4.26888e-06
2.67428e-08
4.25369e-06
2.68099e-08
4.23837e-06
2.68752e-08
4.22294e-06
2.69358e-08
4.20739e-06
2.69906e-08
4.19173e-06
2.70416e-08
4.17596e-06
2.70931e-08
4.16007e-06
2.71481e-08
4.14408e-06
2.72054e-08
4.12798e-06
2.72612e-08
4.11177e-06
2.73129e-08
4.09546e-06
2.73607e-08
4.07905e-06
2.74079e-08
4.06253e-06
2.74586e-08
4.0459e-06
2.75159e-08
4.02917e-06
2.75791e-08
4.01233e-06
2.76453e-08
3.99538e-06
2.77134e-08
3.97832e-06
2.77855e-08
3.96115e-06
2.78649e-08
3.94385e-06
2.79566e-08
3.92643e-06
2.80663e-08
3.90886e-06
2.81935e-08
3.89115e-06
2.8354e-08
3.87326e-06
2.85326e-08
3.85521e-06
2.87787e-08
3.83688e-06
2.90197e-08
3.8184e-06
2.94584e-08
3.79946e-06
2.96629e-08
3.78036e-06
3.07663e-08
3.7607e-06
3.0186e-08
3.74019e-06
3.37979e-08
3.72047e-06
2.95398e-08
3.69603e-06
4.07607e-08
3.67849e-06
2.64504e-08
3.64566e-06
5.33327e-08
3.63206e-06
2.30848e-08
3.58784e-06
6.94354e-08
3.57424e-06
2.66945e-08
3.51824e-06
8.97625e-08
3.49779e-06
3.85834e-08
3.42089e-06
1.3247e-07
3.38375e-06
6.23003e-08
3.27243e-06
2.20011e-07
1.57506e-07
3.15048e-06
-1.34221e-07
4.07226e-07
-2.87595e-07
4.50354e-07
-4.40736e-07
4.49987e-07
-5.95969e-07
4.53898e-07
-7.5212e-07
4.55798e-07
-9.09196e-07
4.57133e-07
-1.06691e-06
4.57456e-07
-1.22478e-06
4.5651e-07
-1.3823e-06
4.54136e-07
-1.53888e-06
4.50052e-07
-1.69382e-06
4.43993e-07
-1.84625e-06
4.35507e-07
-1.99513e-06
4.24284e-07
-2.13929e-06
4.09886e-07
-2.27756e-06
3.92012e-07
-2.40837e-06
3.7013e-07
-2.53019e-06
3.44058e-07
-2.64132e-06
3.13473e-07
-2.74006e-06
2.78196e-07
-2.82464e-06
2.38299e-07
-2.89329e-06
1.93715e-07
-2.94447e-06
1.44885e-07
-2.97685e-06
9.22196e-08
-2.98936e-06
3.65832e-08
-2.98032e-06
-2.35201e-08
-2.94862e-06
-8.60947e-08
-2.89428e-06
-1.4915e-07
-2.81746e-06
-2.12108e-07
-2.71844e-06
-2.7402e-07
-2.59815e-06
-3.33894e-07
-2.45764e-06
-3.90855e-07
-2.29827e-06
-4.44195e-07
-2.12179e-06
-4.92984e-07
-1.93001e-06
-5.36837e-07
-1.72501e-06
-5.75081e-07
-1.50894e-06
-6.07439e-07
-1.28397e-06
-6.33743e-07
-1.05227e-06
-6.53968e-07
-8.15875e-07
-6.68252e-07
-5.76694e-07
-6.76884e-07
-3.3694e-07
-6.79803e-07
-9.72581e-08
-6.785e-07
1.40113e-07
-6.72354e-07
3.74235e-07
-6.6258e-07
6.04141e-07
-6.49509e-07
8.2903e-07
-6.33671e-07
1.04827e-06
-6.15563e-07
1.26136e-06
-5.95639e-07
1.46795e-06
-5.7431e-07
1.66778e-06
-5.51938e-07
1.86068e-06
-5.28836e-07
2.04656e-06
-5.05277e-07
2.22539e-06
-4.81498e-07
2.39717e-06
-4.577e-07
2.56196e-06
-4.34049e-07
2.71985e-06
-4.10688e-07
2.87093e-06
-3.87739e-07
3.01533e-06
-3.65307e-07
3.15321e-06
-3.43474e-07
3.28471e-06
-3.22307e-07
3.40999e-06
-3.01859e-07
3.52923e-06
-2.82175e-07
3.64261e-06
-2.63286e-07
3.75031e-06
-2.45213e-07
3.8525e-06
-2.27965e-07
3.94937e-06
-2.11548e-07
4.0411e-06
-1.95958e-07
4.12788e-06
-1.81184e-07
4.20989e-06
-1.67218e-07
4.28732e-06
-1.54028e-07
4.36032e-06
-1.41605e-07
4.42909e-06
-1.29925e-07
4.49381e-06
-1.18946e-07
4.55462e-06
-1.08655e-07
4.61171e-06
-9.90234e-08
4.66525e-06
-8.9997e-08
4.71538e-06
-8.15514e-08
4.76227e-06
-7.36645e-08
4.80607e-06
-6.62947e-08
4.84692e-06
-5.94132e-08
4.88498e-06
-5.29901e-08
4.92038e-06
-4.70013e-08
4.95325e-06
-4.14117e-08
4.98374e-06
-3.61942e-08
5.01196e-06
-3.1358e-08
5.03801e-06
-2.68376e-08
5.06205e-06
-2.25572e-08
5.08417e-06
-1.85896e-08
5.10447e-06
-1.49167e-08
5.12305e-06
-1.14986e-08
5.14001e-06
-8.31162e-09
5.15544e-06
-5.34979e-09
5.16941e-06
-2.59601e-09
5.18204e-06
-4.0052e-11
5.19335e-06
2.38859e-09
5.20346e-06
4.61343e-09
5.21242e-06
6.69476e-09
5.22031e-06
8.64116e-09
5.22717e-06
1.04681e-08
5.23307e-06
1.21633e-08
5.23806e-06
1.37403e-08
5.24221e-06
1.52092e-08
5.24556e-06
1.65819e-08
5.24816e-06
1.78663e-08
5.25004e-06
1.90671e-08
5.25126e-06
2.01886e-08
5.25184e-06
2.12365e-08
5.25183e-06
2.22167e-08
5.25126e-06
2.31342e-08
5.25017e-06
2.3994e-08
5.24858e-06
2.48006e-08
5.24651e-06
2.55573e-08
5.244e-06
2.62666e-08
5.24107e-06
2.69315e-08
5.23775e-06
2.75556e-08
5.23405e-06
2.81421e-08
5.23e-06
2.86938e-08
5.22562e-06
2.92137e-08
5.22091e-06
2.97042e-08
5.2159e-06
3.0167e-08
5.21061e-06
3.06038e-08
5.20504e-06
3.10159e-08
5.19921e-06
3.14052e-08
5.19314e-06
3.17742e-08
5.18683e-06
3.21254e-08
5.1803e-06
3.24604e-08
5.17354e-06
3.27805e-08
5.16658e-06
3.30858e-08
5.15941e-06
3.33776e-08
5.15206e-06
3.3657e-08
5.14452e-06
3.39255e-08
5.1368e-06
3.41839e-08
5.12891e-06
3.44324e-08
5.12085e-06
3.46718e-08
5.11262e-06
3.49043e-08
5.10423e-06
3.51316e-08
5.09568e-06
3.53545e-08
5.08699e-06
3.55719e-08
5.07814e-06
3.57822e-08
5.06915e-06
3.59849e-08
5.06001e-06
3.61825e-08
5.05072e-06
3.63791e-08
5.04129e-06
3.65773e-08
5.03172e-06
3.67758e-08
5.02201e-06
3.69715e-08
5.01216e-06
3.71625e-08
5.00217e-06
3.73498e-08
4.99204e-06
3.75374e-08
4.98177e-06
3.77297e-08
4.97136e-06
3.79296e-08
4.9608e-06
3.81365e-08
4.9501e-06
3.83478e-08
4.93925e-06
3.85638e-08
4.92825e-06
3.87867e-08
4.91709e-06
3.90237e-08
4.90577e-06
3.92763e-08
4.89427e-06
3.95607e-08
4.88261e-06
3.98604e-08
4.87073e-06
4.02257e-08
4.85868e-06
4.0587e-08
4.84636e-06
4.10998e-08
4.83386e-06
4.15184e-08
4.82095e-06
4.23686e-08
4.80796e-06
4.26492e-08
4.79413e-06
4.4595e-08
4.78079e-06
4.35262e-08
4.76512e-06
4.94762e-08
4.75221e-06
4.24426e-08
4.73246e-06
6.05166e-08
4.72178e-06
3.71298e-08
4.6947e-06
8.04056e-08
4.68679e-06
3.09966e-08
4.65205e-06
1.04182e-07
4.64065e-06
3.8089e-08
4.60361e-06
1.26804e-07
4.57528e-06
6.69164e-08
4.53675e-06
1.70998e-07
4.47942e-06
1.1963e-07
4.43148e-06
2.67948e-07
2.65521e-07
4.32347e-06
-1.28651e-07
5.35877e-07
-2.85918e-07
6.07621e-07
-4.44888e-07
6.08956e-07
-6.02299e-07
6.1131e-07
-7.61951e-07
6.15449e-07
-9.23126e-07
6.18308e-07
-1.0852e-06
6.19531e-07
-1.24842e-06
6.19729e-07
-1.41246e-06
6.18176e-07
-1.57666e-06
6.14254e-07
-1.7401e-06
6.07435e-07
-1.90209e-06
5.97493e-07
-2.0614e-06
5.83599e-07
-2.21692e-06
5.65399e-07
-2.36708e-06
5.42177e-07
-2.51047e-06
5.13517e-07
-2.64508e-06
4.78672e-07
-2.76902e-06
4.37406e-07
-2.88008e-06
3.89264e-07
-2.97609e-06
3.34308e-07
-3.05492e-06
2.72543e-07
-3.11454e-06
2.04508e-07
-3.15316e-06
1.30835e-07
-3.16921e-06
5.26323e-08
-3.16124e-06
-3.14861e-08
-3.12794e-06
-1.19401e-07
-3.06913e-06
-2.07954e-07
-2.98524e-06
-2.95998e-07
-2.87664e-06
-3.82622e-07
-2.7444e-06
-4.66133e-07
-2.59018e-06
-5.45076e-07
-2.41524e-06
-6.19134e-07
-2.22213e-06
-6.86093e-07
-2.01285e-06
-7.46122e-07
-1.79008e-06
-7.97851e-07
-1.5563e-06
-8.41214e-07
-1.31422e-06
-8.75827e-07
-1.0663e-06
-9.01883e-07
-8.1492e-07
-9.19633e-07
-5.62616e-07
-9.29188e-07
-3.10502e-07
-9.31916e-07
-6.11474e-08
-9.27855e-07
1.84594e-07
-9.18095e-07
4.25455e-07
-9.03441e-07
6.60552e-07
-8.84606e-07
8.89214e-07
-8.62333e-07
1.11096e-06
-8.37304e-07
1.32544e-06
-8.10126e-07
1.53247e-06
-7.81335e-07
1.73192e-06
-7.5139e-07
1.92376e-06
-7.2068e-07
2.10803e-06
-6.89538e-07
2.28478e-06
-6.58248e-07
2.45412e-06
-6.27043e-07
2.61619e-06
-5.9612e-07
2.77114e-06
-5.65644e-07
2.91916e-06
-5.35755e-07
3.06043e-06
-5.06571e-07
3.19513e-06
-4.78182e-07
3.32349e-06
-4.50658e-07
3.44568e-06
-4.24059e-07
3.56194e-06
-3.98435e-07
3.67248e-06
-3.73819e-07
3.77749e-06
-3.50224e-07
3.87718e-06
-3.27655e-07
3.97175e-06
-3.06115e-07
4.06139e-06
-2.85603e-07
4.14631e-06
-2.66104e-07
4.22669e-06
-2.47595e-07
4.30271e-06
-2.30048e-07
4.37455e-06
-2.13443e-07
4.44237e-06
-1.97753e-07
4.50636e-06
-1.82937e-07
4.56668e-06
-1.68969e-07
4.62347e-06
-1.55812e-07
4.67689e-06
-1.43421e-07
4.7271e-06
-1.31758e-07
4.77423e-06
-1.20795e-07
4.81843e-06
-1.10496e-07
4.85984e-06
-1.0082e-07
4.89859e-06
-9.17409e-08
4.9348e-06
-8.32144e-08
4.9686e-06
-7.52131e-08
5.00012e-06
-6.77123e-08
5.02943e-06
-6.06681e-08
5.05667e-06
-5.40733e-08
5.08199e-06
-4.78832e-08
5.10547e-06
-4.20639e-08
5.12717e-06
-3.66194e-08
5.1472e-06
-3.15294e-08
5.16565e-06
-2.67659e-08
5.18261e-06
-2.23057e-08
5.19814e-06
-1.81235e-08
5.21231e-06
-1.42098e-08
5.22523e-06
-1.05363e-08
5.23694e-06
-7.09759e-09
5.24752e-06
-3.87894e-09
5.25705e-06
-8.94751e-10
5.26556e-06
1.95535e-09
5.27312e-06
4.60616e-09
5.27978e-06
7.08542e-09
5.28558e-06
9.40403e-09
5.29059e-06
1.15779e-08
5.29484e-06
1.36169e-08
5.29837e-06
1.55283e-08
5.30124e-06
1.73192e-08
5.30348e-06
1.89977e-08
5.30513e-06
2.05708e-08
5.30622e-06
2.20459e-08
5.30678e-06
2.34315e-08
5.30684e-06
2.4735e-08
5.30644e-06
2.59609e-08
5.3056e-06
2.71116e-08
5.30434e-06
2.819e-08
5.30269e-06
2.92016e-08
5.30068e-06
3.01534e-08
5.29832e-06
3.10519e-08
5.29563e-06
3.19011e-08
5.29264e-06
3.27026e-08
5.28935e-06