/*--------------------------------*- C++ -*----------------------------------*\
| =========                 |                                                 |
| \\      /  F ield         | OpenFOAM: The Open Source CFD Toolbox           |
|  \\    /   O peration     | Version:  2.1.x                                 |
|   \\  /    A nd           | Web:      www.OpenFOAM.org                      |
|    \\/     M anipulation  |                                                 |
\*---------------------------------------------------------------------------*/
FoamFile
{
    version     2.0;
    format      ascii;
    class       surfaceScalarField;
    location    "0.006";
    object      phi_0;
}
// * * * * * * * * * * * * * * * * * * * * * * * * * * * * * * * * * * * * * //

dimensions      [0 3 -1 0 0 0 0];

internalField   nonuniform List<scalar> 
24170
(
1.94231e-06
1.26329e-06
1.16687e-06
7.75444e-07
8.41189e-07
3.25677e-07
7.03973e-07
1.37216e-07
6.39041e-07
6.49324e-08
6.0656e-07
3.24806e-08
5.96339e-07
1.02209e-08
5.87914e-07
8.42495e-09
5.70477e-07
1.7437e-08
5.60041e-07
1.04361e-08
5.59272e-07
7.69193e-10
5.64533e-07
-5.26097e-09
5.66742e-07
-2.20896e-09
5.70462e-07
-3.71986e-09
5.74982e-07
-4.52039e-09
5.79641e-07
-4.65876e-09
5.76156e-07
3.48489e-09
-5.22435e-08
6.28399e-07
3.40044e-06
1.2688e-06
2.8988e-06
1.27709e-06
2.51492e-06
7.09549e-07
2.24854e-06
4.03602e-07
2.06762e-06
2.45853e-07
1.95552e-06
1.44575e-07
1.89015e-06
7.55948e-08
1.83628e-06
6.22963e-08
1.78517e-06
6.85484e-08
1.75104e-06
4.4562e-08
1.73704e-06
1.47733e-08
1.7328e-06
-1.02557e-09
1.72773e-06
2.86075e-09
1.73025e-06
-6.2334e-09
1.73078e-06
-5.05871e-09
1.73594e-06
-9.81424e-09
1.75491e-06
-1.54908e-08
-1.05153e-07
1.80782e-06
4.08411e-06
1.07602e-06
4.0084e-06
1.35281e-06
3.8494e-06
8.68542e-07
3.66854e-06
5.8447e-07
3.49451e-06
4.19875e-07
3.36104e-06
2.78052e-07
3.26686e-06
1.69776e-07
3.18212e-06
1.47032e-07
3.10432e-06
1.46351e-07
3.04616e-06
1.02719e-07
3.00923e-06
5.16993e-08
2.98987e-06
1.83423e-08
2.97047e-06
2.22546e-08
2.96756e-06
-3.32265e-09
2.96183e-06
6.72431e-10
2.95745e-06
-5.43777e-09
2.99152e-06
-4.95531e-08
-1.35048e-07
3.02141e-06
4.59686e-06
8.84923e-07
4.673e-06
1.27667e-06
4.66567e-06
8.75873e-07
4.63791e-06
6.12237e-07
4.56475e-06
4.93026e-07
4.49026e-06
3.52543e-07
4.4323e-06
2.27741e-07
4.37876e-06
2.00567e-07
4.33067e-06
1.94442e-07
4.29539e-06
1.38004e-07
4.26794e-06
7.91448e-08
4.24844e-06
3.78394e-08
4.23021e-06
4.04859e-08
4.22102e-06
5.86854e-09
4.20504e-06
1.66571e-08
4.18671e-06
1.28904e-08
4.24263e-06
-1.05471e-07
-1.53066e-07
4.26064e-06
4.71669e-06
6.65377e-07
4.9226e-06
1.07076e-06
5.03826e-06
7.60213e-07
5.14939e-06
5.01107e-07
5.19436e-06
4.4806e-07
5.18653e-06
3.60374e-07
5.15431e-06
2.59954e-07
5.12708e-06
2.27798e-07
5.12812e-06
1.93406e-07
5.15336e-06
1.12766e-07
5.18498e-06
4.7522e-08
5.21427e-06
8.54928e-09
5.23111e-06
2.36456e-08
5.19741e-06
3.95698e-08
5.13256e-06
8.15038e-08
5.1241e-06
2.13575e-08
5.17983e-06
-1.612e-07
-1.39798e-07
5.16656e-06
5.38722e-06
5.50253e-07
5.47859e-06
9.79387e-07
5.48163e-06
7.57172e-07
5.52257e-06
4.60164e-07
5.58632e-06
3.84315e-07
5.61874e-06
3.27949e-07
5.61202e-06
2.66677e-07
5.60327e-06
2.36544e-07
5.62883e-06
1.67854e-07
5.68778e-06
5.38162e-08
5.7468e-06
-1.15038e-08
5.7844e-06
-2.90534e-08
5.78765e-06
2.0404e-08
5.75106e-06
7.61536e-08
5.74914e-06
8.34279e-08
5.77513e-06
-4.63065e-09
5.75053e-06
-1.36608e-07
-7.12063e-08
5.68194e-06
5.67009e-06
2.90583e-07
5.88567e-06
7.63802e-07
5.97266e-06
6.70184e-07
5.99257e-06
4.40253e-07
6.04389e-06
3.32994e-07
6.07967e-06
2.92174e-07
6.09727e-06
2.49076e-07
6.12163e-06
2.12185e-07
6.16239e-06
1.27088e-07
6.19836e-06
1.78493e-08
6.22008e-06
-3.32252e-08
6.22406e-06
-3.30294e-08
6.23303e-06
1.14303e-08
6.25863e-06
5.05563e-08
6.28471e-06
5.7343e-08
6.27644e-06
3.63777e-09
6.28805e-06
-1.48218e-07
-1.00577e-07
6.31743e-06
4.45271e-06
2.21777e-07
4.56167e-06
6.54842e-07
4.6207e-06
6.11155e-07
4.60707e-06
4.53879e-07
4.59224e-06
3.47824e-07
4.59345e-06
2.90964e-07
4.61964e-06
2.22885e-07
4.67401e-06
1.57821e-07
4.73392e-06
6.71733e-08
4.77627e-06
-2.44973e-08
4.79826e-06
-5.5222e-08
4.809e-06
-4.3767e-08
4.8324e-06
-1.19674e-08
4.85986e-06
2.30945e-08
4.86782e-06
4.93884e-08
4.88795e-06
-1.65005e-08
4.95158e-06
-2.11839e-07
-1.30822e-07
4.98182e-06
5.13696e-06
2.34057e-07
5.28115e-06
5.10654e-07
5.36616e-06
5.26149e-07
5.35568e-06
4.64361e-07
5.31593e-06
3.87572e-07
5.31246e-06
2.94432e-07
5.35243e-06
1.8292e-07
5.42578e-06
8.44647e-08
5.49728e-06
-4.32398e-09
5.54801e-06
-7.52306e-08
5.57478e-06
-8.19858e-08
5.58689e-06
-5.58817e-08
5.59222e-06
-1.72975e-08
5.58948e-06
2.58331e-08
5.61038e-06
2.84954e-08
5.65532e-06
-6.14491e-08
5.66235e-06
-2.1887e-07
-9.40006e-08
5.62553e-06
5.93029e-06
3.08087e-07
6.05171e-06
3.89239e-07
6.15919e-06
4.18667e-07
6.23134e-06
3.92207e-07
6.27044e-06
3.48476e-07
6.3021e-06
2.62773e-07
6.32814e-06
1.56881e-07
6.34647e-06
6.61316e-08
6.35517e-06
-1.30254e-08
6.35059e-06
-7.06509e-08
6.34874e-06
-8.01377e-08
6.35195e-06
-5.90879e-08
6.37295e-06
-3.82968e-08
6.40753e-06
-8.74518e-09
6.45506e-06
-1.90406e-08
6.48849e-06
-9.48761e-08
6.46023e-06
-1.90609e-07
-1.0652e-07
6.47275e-06
7.22905e-06
1.42838e-07
7.30801e-06
3.1028e-07
7.3232e-06
4.03478e-07
7.3218e-06
3.9361e-07
7.34552e-06
3.24753e-07
7.38033e-06
2.27965e-07
7.41047e-06
1.26739e-07
7.42067e-06
5.59347e-08
7.4059e-06
1.73762e-09
7.3666e-06
-3.13425e-08
7.32775e-06
-4.12923e-08
7.30457e-06
-3.59028e-08
7.30675e-06
-4.04838e-08
7.34502e-06
-4.70095e-08
7.3982e-06
-7.22261e-08
7.41998e-06
-1.16651e-07
7.40839e-06
-1.79027e-07
-2.25764e-07
7.52764e-06
8.10778e-06
2.40208e-07
8.17466e-06
2.43402e-07
8.24069e-06
3.37441e-07
8.3302e-06
3.04099e-07
8.44442e-06
2.10533e-07
8.53833e-06
1.34058e-07
8.58357e-06
8.15032e-08
8.57583e-06
6.36748e-08
8.53024e-06
4.73228e-08
8.47844e-06
2.04617e-08
8.44475e-06
-7.60168e-09
8.44198e-06
-3.31337e-08
8.46786e-06
-6.63626e-08
8.52329e-06
-1.02438e-07
8.58012e-06
-1.29062e-07
8.60831e-06
-1.44838e-07
8.66351e-06
-2.34229e-07
-3.57088e-07
8.79484e-06
9.75469e-06
2.69912e-07
9.69408e-06
3.04008e-07
9.71799e-06
3.13532e-07
9.78831e-06
2.33775e-07
9.8594e-06
1.39449e-07
9.90175e-06
9.17067e-08
9.90112e-06
8.21291e-08
9.88073e-06
8.40679e-08
9.85778e-06
7.02701e-08
9.84091e-06
3.73369e-08
9.83944e-06
-6.13773e-09
9.85026e-06
-4.39495e-08
9.87589e-06
-9.1992e-08
9.918e-06
-1.44556e-07
9.96017e-06
-1.71223e-07
9.98797e-06
-1.72644e-07
9.99046e-06
-2.36721e-07
-3.91279e-07
1.00247e-05
1.13114e-05
4.46802e-08
1.13883e-05
2.27098e-07
1.13857e-05
3.16096e-07
1.13435e-05
2.75992e-07
1.12764e-05
2.06554e-07
1.12422e-05
1.259e-07
1.1264e-05
6.03903e-08
1.13359e-05
1.21469e-08
1.14332e-05
-2.70388e-08
1.1522e-05
-5.1492e-08
1.1592e-05
-7.60873e-08
1.16414e-05
-9.33873e-08
1.16643e-05
-1.14919e-07
1.16666e-05
-1.46783e-07
1.16665e-05
-1.71133e-07
1.16591e-05
-1.65239e-07
1.15868e-05
-1.64416e-07
-3.71192e-07
1.15667e-05
1.27959e-05
3.11076e-07
1.28287e-05
1.94294e-07
1.29971e-05
1.47712e-07
1.31602e-05
1.12901e-07
1.3296e-05
7.07795e-08
1.33853e-05
3.65358e-08
1.34303e-05
1.53896e-08
1.3447e-05
-4.50175e-09
1.34582e-05
-3.83123e-08
1.34757e-05
-6.89399e-08
1.35026e-05
-1.02949e-07
1.35363e-05
-1.27107e-07
1.35569e-05
-1.35557e-07
1.35537e-05
-1.43564e-07
1.35599e-05
-1.77313e-07
1.36121e-05
-2.17504e-07
1.35986e-05
-1.50887e-07
-1.11922e-07
1.33393e-05
1.4558e-05
3.55526e-08
1.48603e-05
-1.08029e-07
1.51113e-05
-1.03204e-07
1.52826e-05
-5.84769e-08
1.53777e-05
-2.42867e-08
1.54199e-05
-5.6785e-09
1.5442e-05
-6.65956e-09
1.54603e-05
-2.28337e-08
1.54853e-05
-6.33305e-08
1.55224e-05
-1.06079e-07
1.55611e-05
-1.41577e-07
1.55965e-05
-1.6251e-07
1.56268e-05
-1.65897e-07
1.56551e-05
-1.71797e-07
1.56682e-05
-1.90468e-07
1.56518e-05
-2.01068e-07
1.56816e-05
-1.8074e-07
-1.50481e-07
1.57202e-05
1.69404e-05
-1.34079e-07
1.72737e-05
-4.4133e-07
1.76303e-05
-4.59844e-07
1.79126e-05
-3.40724e-07
1.80865e-05
-1.98214e-07
1.8154e-05
-7.32335e-08
1.81578e-05
-1.04603e-08
1.81485e-05
-1.34675e-08
1.81459e-05
-6.07255e-08
1.81593e-05
-1.19555e-07
1.81807e-05
-1.62933e-07
1.82032e-05
-1.84989e-07
1.82256e-05
-1.88282e-07
1.82391e-05
-1.85373e-07
1.82157e-05
-1.67051e-07
1.81629e-05
-1.48274e-07
1.81847e-05
-2.02489e-07
-2.65227e-07
1.82994e-05
1.81733e-05
-1.87641e-07
1.792e-05
-1.88094e-07
1.77638e-05
-3.03602e-07
1.777e-05
-3.46942e-07
1.78676e-05
-2.95781e-07
1.79763e-05
-1.81999e-07
1.80455e-05
-7.96526e-08
1.8065e-05
-3.29274e-08
1.80426e-05
-3.83762e-08
1.80091e-05
-8.59802e-08
1.79945e-05
-1.48412e-07
1.8015e-05
-2.05474e-07
1.80683e-05
-2.4157e-07
1.81359e-05
-2.53008e-07
1.82208e-05
-2.51944e-07
1.83235e-05
-2.50976e-07
1.8337e-05
-2.15932e-07
-1.52342e-07
1.82241e-05
1.58374e-05
-1.87261e-07
1.56841e-05
-3.47663e-08
1.55636e-05
-1.831e-07
1.5535e-05
-3.18419e-07
1.5616e-05
-3.76711e-07
1.57942e-05
-3.60173e-07
1.60005e-05
-2.86043e-07
1.61726e-05
-2.0497e-07
1.62804e-05
-1.46165e-07
1.63231e-05
-1.2869e-07
1.63263e-05
-1.51587e-07
1.63177e-05
-1.96877e-07
1.63183e-05
-2.42165e-07
1.63385e-05
-2.73206e-07
1.63678e-05
-2.81261e-07
1.63823e-05
-2.65496e-07
1.64185e-05
-2.52161e-07
-2.54148e-07
1.65203e-05
1.41878e-05
-1.18303e-07
1.43129e-05
-1.59866e-07
1.43616e-05
-2.31816e-07
1.43458e-05
-3.02588e-07
1.42831e-05
-3.1402e-07
1.42373e-05
-3.14359e-07
1.42526e-05
-3.01369e-07
1.43226e-05
-2.74941e-07
1.44202e-05
-2.43812e-07
1.45142e-05
-2.22686e-07
1.45841e-05
-2.21487e-07
1.46216e-05
-2.34339e-07
1.46296e-05
-2.50157e-07
1.46134e-05
-2.571e-07
1.45864e-05
-2.54224e-07
1.45678e-05
-2.46886e-07
1.45502e-05
-2.3458e-07
-2.14333e-07
1.45104e-05
1.28064e-05
4.7869e-08
1.27503e-05
-1.03838e-07
1.28079e-05
-2.89352e-07
1.28714e-05
-3.66099e-07
1.291e-05
-3.52688e-07
1.29218e-05
-3.26158e-07
1.29235e-05
-3.02989e-07
1.29327e-05
-2.84165e-07
1.296e-05
-2.71126e-07
1.30003e-05
-2.62982e-07
1.30382e-05
-2.59338e-07
1.3064e-05
-2.60201e-07
1.30765e-05
-2.6268e-07
1.30788e-05
-2.59354e-07
1.30722e-05
-2.47631e-07
1.30559e-05
-2.30613e-07
1.3037e-05
-2.15684e-07
-2.0844e-07
1.30311e-05
1.13652e-05
5.15563e-08
1.14406e-05
-1.79186e-07
1.1589e-05
-4.37754e-07
1.17351e-05
-5.12238e-07
1.18274e-05
-4.44949e-07
1.1849e-05
-3.47796e-07
1.18169e-05
-2.70884e-07
1.17652e-05
-2.32468e-07
1.17151e-05
-2.21049e-07
1.16769e-05
-2.24706e-07
1.16511e-05
-2.33584e-07
1.16344e-05
-2.43534e-07
1.16232e-05
-2.51473e-07
1.1616e-05
-2.52133e-07
1.16102e-05
-2.41813e-07
1.16071e-05
-2.27489e-07
1.1606e-05
-2.14611e-07
-2.06987e-07
1.16046e-05
9.80567e-06
-1.50117e-07
1.01068e-05
-4.80296e-07
1.0328e-05
-6.58961e-07
1.04155e-05
-5.99727e-07
1.04457e-05
-4.7518e-07
1.04644e-05
-3.66537e-07
1.04924e-05
-2.98872e-07
1.05364e-05
-2.76441e-07
1.05838e-05
-2.68476e-07
1.0623e-05
-2.63917e-07
1.06496e-05
-2.60099e-07
1.06614e-05
-2.55343e-07
1.06629e-05
-2.52989e-07
1.06614e-05
-2.50601e-07
1.06617e-05
-2.42194e-07
1.06659e-05
-2.31687e-07
1.06704e-05
-2.19122e-07
-2.12671e-07
1.06761e-05
8.95851e-06
-2.81159e-07
9.17121e-06
-6.93001e-07
9.2782e-06
-7.65947e-07
9.31621e-06
-6.37739e-07
9.35545e-06
-5.1442e-07
9.4201e-06
-4.31189e-07
9.49419e-06
-3.72958e-07
9.53938e-06
-3.21632e-07
9.54309e-06
-2.72184e-07
9.51632e-06
-2.37148e-07
9.47945e-06
-2.23237e-07
9.44924e-06
-2.2513e-07
9.43352e-06
-2.37269e-07
9.43411e-06
-2.51194e-07
9.4481e-06
-2.5618e-07
9.46797e-06
-2.51553e-07
9.48682e-06
-2.3798e-07
-2.21184e-07
9.49534e-06
7.91832e-06
-4.168e-07
8.16006e-06
-9.34742e-07
8.34139e-06
-9.47269e-07
8.45375e-06
-7.50105e-07
8.50596e-06
-5.66626e-07
8.55584e-06
-4.81071e-07
8.60628e-06
-4.23401e-07
8.64942e-06
-3.64774e-07
8.68122e-06
-3.03975e-07
8.69951e-06
-2.55437e-07
8.70148e-06
-2.25207e-07
8.68907e-06
-2.12725e-07
8.66529e-06
-2.1349e-07
8.63403e-06
-2.19927e-07
8.60253e-06
-2.24685e-07
8.57556e-06
-2.24582e-07
8.55569e-06
-2.18114e-07
-2.08503e-07
8.54301e-06
7.2295e-06
-6.40546e-07
7.43971e-06
-1.14495e-06
7.55192e-06
-1.05948e-06
7.57986e-06
-7.78044e-07
7.58711e-06
-5.73873e-07
7.5875e-06
-4.81469e-07
7.58836e-06
-4.24257e-07
7.5961e-06
-3.72508e-07
7.61518e-06
-3.23064e-07
7.64088e-06
-2.81138e-07
7.6676e-06
-2.51925e-07
7.68947e-06
-2.34591e-07
7.70262e-06
-2.26638e-07
7.70607e-06
-2.23384e-07
7.70161e-06
-2.20221e-07
7.69218e-06
-2.15153e-07
7.67965e-06
-2.05578e-07
-1.96706e-07
7.66785e-06
6.61844e-06
-7.27274e-07
6.7609e-06
-1.28741e-06
6.83093e-06
-1.12951e-06
6.84199e-06
-7.89102e-07
6.85848e-06
-5.90365e-07
6.87095e-06
-4.93935e-07
6.86974e-06
-4.2305e-07
6.85485e-06
-3.57612e-07
6.83231e-06
-3.00527e-07
6.80431e-06
-2.5314e-07
6.77253e-06
-2.20145e-07
6.73435e-06
-1.96409e-07
6.68979e-06
-1.82074e-07
6.63885e-06
-1.72453e-07
6.58605e-06
-1.67414e-07
6.53316e-06
-1.62268e-07
6.48369e-06
-1.5611e-07
-1.46166e-07
6.43315e-06
5.96091e-06
-9.12226e-07
6.05624e-06
-1.38273e-06
6.00665e-06
-1.07992e-06
5.92258e-06
-7.0503e-07
5.80721e-06
-4.74996e-07
5.66775e-06
-3.54473e-07
5.52351e-06
-2.78811e-07
5.38631e-06
-2.20415e-07
5.26188e-06
-1.76092e-07
5.15055e-06
-1.41812e-07
5.04937e-06
-1.18963e-07
4.95548e-06
-1.02523e-07
4.86746e-06
-9.40479e-08
4.78306e-06
-8.80603e-08
4.70428e-06
-8.86342e-08
4.62875e-06
-8.67354e-08
4.56018e-06
-8.75391e-08
-7.82105e-08
4.49223e-06
5.14782e-06
-1.095e-06
4.85682e-06
-1.09174e-06
4.43935e-06
-6.62448e-07
4.09453e-06
-3.60214e-07
3.80674e-06
-1.87203e-07
3.55867e-06
-1.06403e-07
3.34901e-06
-6.91586e-08
3.17805e-06
-4.94476e-08
3.04054e-06
-3.85886e-08
2.92966e-06
-3.0929e-08
2.83725e-06
-2.6557e-08
2.75815e-06
-2.34225e-08
2.68679e-06
-2.26846e-08
2.62091e-06
-2.21845e-08
2.55676e-06
-2.44807e-08
2.49468e-06
-2.46589e-08
2.43794e-06
-3.07946e-08
-2.34096e-08
2.38314e-06
3.43865e-06
2.34691e-06
1.68447e-06
1.32425e-06
1.13705e-06
1.03065e-06
9.61488e-07
9.1204e-07
8.73452e-07
8.42523e-07
8.15966e-07
7.92543e-07
7.69859e-07
7.47674e-07
7.23193e-07
6.98535e-07
6.6774e-07
6.4433e-07
-1.36094e-07
1.36094e-07
-2.81921e-07
1.45827e-07
-4.27697e-07
1.45775e-07
-5.74181e-07
1.46484e-07
-7.20868e-07
1.46688e-07
-8.6747e-07
1.46602e-07
-1.01364e-06
1.46167e-07
-1.15899e-06
1.45348e-07
-1.30312e-06
1.44136e-07
-1.44561e-06
1.42487e-07
-1.5859e-06
1.40293e-07
-1.72332e-06
1.37419e-07
-1.85712e-06
1.33803e-07
-1.98639e-06
1.29268e-07
-2.11007e-06
1.2368e-07
-2.22701e-06
1.16942e-07
-2.33597e-06
1.08957e-07
-2.43557e-06
9.96023e-08
-2.5244e-06
8.88234e-08
-2.60106e-06
7.66673e-08
-2.66414e-06
6.30719e-08
-2.71232e-06
4.81865e-08
-2.74432e-06
3.19987e-08
-2.75922e-06
1.48996e-08
-2.7558e-06
-3.42367e-09
-2.73302e-06
-2.27794e-08
-2.69077e-06
-4.22438e-08
-2.62905e-06
-6.17246e-08
-2.5482e-06
-8.0849e-08
-2.44878e-06
-9.94228e-08
-2.33171e-06
-1.17067e-07
-2.19809e-06
-1.33625e-07
-2.0493e-06
-1.48789e-07
-1.88689e-06
-1.62403e-07
-1.71261e-06
-1.74281e-07
-1.52832e-06
-1.84296e-07
-1.33593e-06
-1.92389e-07
-1.13742e-06
-1.98508e-07
-9.34849e-07
-2.0257e-07
-7.2987e-07
-2.04979e-07
-5.24409e-07
-2.05461e-07
-3.20327e-07
-2.04082e-07
-1.19055e-07
-2.01271e-07
7.83889e-08
-1.97444e-07
2.7051e-07
-1.92121e-07
4.56305e-07
-1.85795e-07
6.34939e-07
-1.78634e-07
8.05736e-07
-1.70797e-07
9.68169e-07
-1.62433e-07
1.12186e-06
-1.53687e-07
1.26654e-06
-1.44687e-07
1.40209e-06
-1.35543e-07
1.52844e-06
-1.26353e-07
1.64565e-06
-1.17207e-07
1.75383e-06
-1.08187e-07
1.85319e-06
-9.93615e-08
1.94398e-06
-9.07815e-08
2.02647e-06
-8.24906e-08
2.101e-06
-7.45312e-08
2.16794e-06
-6.69399e-08
2.22768e-06
-5.97392e-08
2.28062e-06
-5.2939e-08
2.32717e-06
-4.65502e-08
2.36775e-06
-4.05801e-08
2.40278e-06
-3.50323e-08
2.43268e-06
-2.98996e-08
2.45784e-06
-2.51645e-08
2.47867e-06
-2.08247e-08
2.49553e-06
-1.68639e-08
2.50879e-06
-1.32604e-08
2.51879e-06
-1.00012e-08
2.52586e-06
-7.0651e-09
2.53028e-06
-4.42732e-09
2.53235e-06
-2.06212e-09
2.53235e-06
-5.3646e-12
2.53048e-06
1.87661e-09
2.52699e-06
3.48733e-09
2.52207e-06
4.91768e-09
2.51589e-06
6.18157e-09
2.50861e-06
7.28353e-09
2.50036e-06
8.24794e-09
2.49127e-06
9.08622e-09
2.48145e-06
9.81906e-09
2.47099e-06
1.04637e-08
2.45998e-06
1.10071e-08
2.44849e-06
1.14891e-08
2.43656e-06
1.19312e-08
2.42425e-06
1.23072e-08
2.41165e-06
1.2607e-08
2.39879e-06
1.28543e-08
2.38573e-06
1.30609e-08
2.37251e-06
1.32268e-08
2.35915e-06
1.33563e-08
2.34569e-06
1.34638e-08
2.33213e-06
1.35508e-08
2.31853e-06
1.36091e-08
2.30488e-06
1.36491e-08
2.2912e-06
1.36783e-08
2.2775e-06
1.36948e-08
2.26381e-06
1.36957e-08
2.25012e-06
1.36839e-08
2.23646e-06
1.36624e-08
2.22283e-06
1.36339e-08
2.20923e-06
1.36003e-08
2.19567e-06
1.35613e-08
2.18215e-06
1.35161e-08
2.16868e-06
1.34663e-08
2.15527e-06
1.34148e-08
2.14191e-06
1.33625e-08
2.1286e-06
1.33086e-08
2.11535e-06
1.32513e-08
2.10216e-06
1.31904e-08
2.08903e-06
1.31279e-08
2.07596e-06
1.30661e-08
2.06296e-06
1.30059e-08
2.05001e-06
1.29456e-08
2.03713e-06
1.28833e-08
2.02431e-06
1.28184e-08
2.01156e-06
1.27525e-08
1.99887e-06
1.26874e-08
1.98624e-06
1.26238e-08
1.97368e-06
1.25612e-08
1.96119e-06
1.24982e-08
1.94875e-06
1.24344e-08
1.93638e-06
1.23698e-08
1.92408e-06
1.23049e-08
1.91184e-06
1.22403e-08
1.89966e-06
1.21766e-08
1.88754e-06
1.21147e-08
1.87549e-06
1.20545e-08
1.8635e-06
1.1995e-08
1.85156e-06
1.19348e-08
1.83969e-06
1.18728e-08
1.82788e-06
1.18098e-08
1.81613e-06
1.17479e-08
1.80444e-06
1.16887e-08
1.79281e-06
1.16321e-08
1.78123e-06
1.15763e-08
1.76971e-06
1.15188e-08
1.75826e-06
1.14586e-08
1.74686e-06
1.13974e-08
1.73552e-06
1.13382e-08
1.72424e-06
1.12827e-08
1.71301e-06
1.123e-08
1.70183e-06
1.11773e-08
1.69071e-06
1.11228e-08
1.67964e-06
1.10666e-08
1.66863e-06
1.10107e-08
1.65767e-06
1.09577e-08
1.64676e-06
1.09093e-08
1.6359e-06
1.08651e-08
1.62507e-06
1.08229e-08
1.61429e-06
1.07818e-08
1.60355e-06
1.07428e-08
1.59284e-06
1.07076e-08
1.58216e-06
1.06784e-08
1.5715e-06
1.06597e-08
1.56086e-06
1.06466e-08
1.5502e-06
1.06592e-08
1.53954e-06
1.06579e-08
1.5288e-06
1.07413e-08
1.51809e-06
1.07076e-08
1.50709e-06
1.09991e-08
1.49636e-06
1.07363e-08
1.48467e-06
1.16832e-08
1.47413e-06
1.05479e-08
1.46084e-06
1.32897e-08
1.45098e-06
9.85401e-09
1.43466e-06
1.63172e-08
1.42572e-06
8.93951e-09
1.40522e-06
2.05082e-08
1.39573e-06
9.49049e-09
1.37048e-06
2.52473e-08
1.35739e-06
1.30889e-08
1.32361e-06
3.37818e-08
1.30546e-06
1.81473e-08
1.24987e-06
5.55951e-08
1.22469e-06
2.5172e-08
1.11591e-06
1.08783e-07
3.56456e-08
1.08027e-06
-1.36761e-07
2.72855e-07
-2.87637e-07
2.96703e-07
-4.38416e-07
2.96555e-07
-5.90288e-07
2.98357e-07
-7.42913e-07
2.99312e-07
-8.96002e-07
2.99692e-07
-1.04917e-06
2.99336e-07
-1.20201e-06
2.98191e-07
-1.35399e-06
2.96112e-07
-1.50441e-06
2.92908e-07
-1.65253e-06
2.88415e-07
-1.79747e-06
2.82357e-07
-1.93826e-06
2.74595e-07
-2.07382e-06
2.64829e-07
-2.2029e-06
2.52757e-07
-2.32418e-06
2.38222e-07
-2.43628e-06
2.21054e-07
-2.53772e-06
2.01048e-07
-2.62698e-06
1.78082e-07
-2.70256e-06
1.5225e-07
-2.76302e-06
1.23524e-07
-2.80694e-06
9.21091e-08
-2.83313e-06
5.81948e-08
-2.84066e-06
2.24251e-08
-2.82789e-06
-1.61885e-08
-2.79462e-06
-5.60577e-08
-2.74048e-06
-9.63849e-08
-2.66544e-06
-1.36764e-07
-2.56994e-06
-1.76341e-07
-2.45459e-06
-2.14772e-07
-2.32032e-06
-2.5134e-07
-2.16833e-06
-2.8562e-07
-2.00003e-06
-3.17088e-07
-1.817e-06
-3.45426e-07
-1.62103e-06
-3.70251e-07
-1.414e-06
-3.91329e-07
-1.19784e-06
-4.08555e-07
-9.74461e-07
-4.21882e-07
-7.45713e-07
-4.31318e-07
-5.13656e-07
-4.37036e-07
-2.79842e-07
-4.39276e-07
-4.59653e-08
-4.37959e-07
1.86818e-07
-4.34055e-07
4.16858e-07
-4.27484e-07
6.43333e-07
-4.18596e-07
8.65292e-07
-4.07754e-07
1.08195e-06
-3.9529e-07
1.29266e-06
-3.8151e-07
1.49692e-06
-3.66694e-07
1.69433e-06
-3.51099e-07
1.8846e-06
-3.3495e-07
2.0675e-06
-3.18444e-07
2.2429e-06
-3.01755e-07
2.41072e-06
-2.85031e-07
2.57095e-06
-2.68408e-07
2.72358e-06
-2.52e-07
2.8687e-06
-2.35899e-07
3.00639e-06
-2.20183e-07
3.13678e-06
-2.04922e-07
3.26002e-06
-1.90174e-07
3.37627e-06
-1.75986e-07
3.48572e-06
-1.62388e-07
3.58857e-06
-1.49405e-07
3.68504e-06
-1.37054e-07
3.77536e-06
-1.25347e-07
3.85975e-06
-1.14291e-07
3.93845e-06
-1.03869e-07
4.01171e-06
-9.40831e-08
4.07977e-06
-8.49183e-08
4.14285e-06
-7.63453e-08
4.20122e-06
-6.83675e-08
4.25509e-06
-6.09394e-08
4.30471e-06
-5.40446e-08
4.35032e-06
-4.76731e-08
4.3921e-06
-4.17865e-08
4.43031e-06
-3.63286e-08
4.4651e-06
-3.13031e-08
4.49669e-06
-2.66772e-08
4.52528e-06
-2.24083e-08
4.55105e-06
-1.84845e-08
4.57416e-06
-1.48635e-08
4.59479e-06
-1.15403e-08
4.61309e-06
-8.48471e-09
4.62922e-06
-5.66608e-09
4.64333e-06
-3.10283e-09
4.65558e-06
-7.54649e-10
4.66599e-06
1.51582e-09
4.67474e-06
3.55547e-09
4.68195e-06
5.39975e-09
4.6877e-06
7.10027e-09
4.6921e-06
8.66303e-09
4.69524e-06
1.00874e-08
4.69721e-06
1.13912e-08
4.69808e-06
1.2595e-08
4.69792e-06
1.37099e-08
4.6968e-06
1.47265e-08
4.69478e-06
1.56636e-08
4.69193e-06
1.653e-08
4.6883e-06
1.73309e-08
4.68393e-06
1.8065e-08
4.67887e-06
1.87397e-08
4.67317e-06
1.93605e-08
4.66687e-06
1.99333e-08
4.66001e-06
2.04638e-08
4.65262e-06
2.09543e-08
4.64473e-06
2.14065e-08
4.63637e-06
2.18234e-08
4.62758e-06
2.22097e-08
4.61837e-06
2.25688e-08
4.60878e-06
2.29022e-08
4.59882e-06
2.32109e-08
4.58851e-06
2.34961e-08
4.57788e-06
2.37602e-08
4.56694e-06
2.40064e-08
4.55571e-06
2.42368e-08
4.5442e-06
2.44514e-08
4.53243e-06
2.465e-08
4.52042e-06
2.48333e-08
4.50817e-06
2.50037e-08
4.49569e-06
2.51635e-08
4.483e-06
2.53143e-08
4.47011e-06
2.54559e-08
4.45702e-06
2.55877e-08
4.44374e-06
2.571e-08
4.43029e-06
2.58242e-08
4.41666e-06
2.59316e-08
4.40287e-06
2.60333e-08
4.38891e-06
2.61301e-08
4.37481e-06
2.62226e-08
4.36055e-06
2.63114e-08
4.34615e-06
2.63963e-08
4.33161e-06
2.64762e-08
4.31693e-06
2.65504e-08
4.30212e-06
2.66199e-08
4.28718e-06
2.6687e-08
4.27211e-06
2.6754e-08
4.25693e-06
2.68214e-08
4.24161e-06
2.6887e-08
4.22619e-06
2.69478e-08
4.21064e-06
2.70029e-08
4.19498e-06
2.70541e-08
4.17922e-06
2.71059e-08
4.16334e-06
2.71612e-08
4.14735e-06
2.72187e-08
4.13125e-06
2.72747e-08
4.11505e-06
2.73266e-08
4.09874e-06
2.73747e-08
4.08233e-06
2.74221e-08
4.06581e-06
2.74731e-08
4.04919e-06
2.75306e-08
4.03246e-06
2.7594e-08
4.01563e-06
2.76604e-08
3.99868e-06
2.77287e-08
3.98162e-06
2.7801e-08
3.96445e-06
2.78805e-08
3.94715e-06
2.79725e-08
3.92973e-06
2.80822e-08
3.91217e-06
2.82097e-08
3.89446e-06
2.83701e-08
3.87657e-06
2.8549e-08
3.85851e-06
2.87947e-08
3.84018e-06
2.90368e-08
3.82171e-06
2.94729e-08
3.80276e-06
2.9683e-08
3.78367e-06
3.07742e-08
3.764e-06
3.02169e-08
3.74351e-06
3.3787e-08
3.72376e-06
2.95956e-08
3.69936e-06
4.07202e-08
3.68177e-06
2.65269e-08
3.64899e-06
5.32905e-08
3.63536e-06
2.31262e-08
3.59115e-06
6.94569e-08
3.57757e-06
2.66621e-08
3.52154e-06
8.98158e-08
3.50111e-06
3.85756e-08
3.42422e-06
1.32488e-07
3.38708e-06
6.23106e-08
3.27569e-06
2.20175e-07
1.57627e-07
3.15371e-06
-1.34171e-07
4.07026e-07
-2.87411e-07
4.49942e-07
-4.40413e-07
4.49557e-07
-5.95475e-07
4.53419e-07
-7.51447e-07
4.55284e-07
-9.08325e-07
4.56569e-07
-1.06582e-06
4.5683e-07
-1.22344e-06
4.55814e-07
-1.38069e-06
4.53358e-07
-1.53696e-06
4.49179e-07
-1.69156e-06
4.43013e-07
-1.84361e-06
4.34409e-07
-1.99207e-06
4.23057e-07
-2.13576e-06
4.08521e-07
-2.27351e-06
3.90502e-07
-2.40376e-06
3.6847e-07
-2.52495e-06
3.42245e-07
-2.63541e-06
3.1151e-07
-2.73341e-06
2.76087e-07
-2.81722e-06
2.36054e-07
-2.88505e-06
1.91351e-07
-2.93536e-06
1.42423e-07
-2.96686e-06
8.96908e-08
-2.97848e-06
3.40453e-08
-2.96847e-06
-2.6191e-08
-2.93586e-06
-8.86741e-08
-2.88063e-06
-1.51612e-07
-2.80299e-06
-2.14401e-07
-2.70324e-06
-2.76097e-07
-2.5823e-06
-3.35713e-07
-2.44126e-06
-3.92378e-07
-2.28148e-06
-4.45396e-07
-2.10471e-06
-4.93856e-07
-1.91277e-06
-5.37373e-07
-1.70772e-06
-5.75293e-07
-1.49171e-06
-6.07343e-07
-1.2669e-06
-6.33365e-07
-1.03545e-06
-6.53335e-07
-7.99368e-07
-6.67397e-07
-5.60563e-07
-6.75842e-07
-3.21235e-07
-6.78604e-07
-8.20155e-08
-6.77178e-07
1.54885e-07
-6.70956e-07
3.88515e-07
-6.61113e-07
6.17916e-07
-6.47998e-07
8.42298e-07
-6.32135e-07
1.06103e-06
-6.14019e-07
1.27362e-06
-5.94101e-07
1.47971e-06
-5.7279e-07
1.67906e-06
-5.50446e-07
1.87149e-06
-5.27379e-07
2.05691e-06
-5.03862e-07
2.23528e-06
-4.80129e-07
2.40663e-06
-4.56382e-07
2.57101e-06
-4.32785e-07
2.72849e-06
-4.0948e-07
2.87918e-06
-3.86589e-07
3.02321e-06
-3.64215e-07
3.16073e-06
-3.42441e-07
3.29189e-06
-3.21332e-07
3.41684e-06
-3.00943e-07
3.53577e-06
-2.81317e-07
3.64885e-06
-2.62484e-07
3.75626e-06
-2.44465e-07
3.85818e-06
-2.27268e-07
3.95479e-06
-2.10902e-07
4.04629e-06
-1.9536e-07
4.13283e-06
-1.80631e-07
4.21462e-06
-1.66708e-07
4.29184e-06
-1.53559e-07
4.36464e-06
-1.41174e-07
4.43323e-06
-1.2953e-07
4.49777e-06
-1.18584e-07
4.55842e-06
-1.08324e-07
4.61536e-06
-9.87208e-08
4.66875e-06
-8.97211e-08
4.71875e-06
-8.13003e-08
4.76551e-06
-7.34359e-08
4.80919e-06
-6.60866e-08
4.84993e-06
-5.92241e-08
4.88788e-06
-5.28184e-08
4.92319e-06
-4.68456e-08
4.95597e-06
-4.12706e-08
4.98637e-06
-3.60666e-08
5.01451e-06
-3.12425e-08
5.04049e-06
-2.67329e-08
5.06447e-06
-2.24621e-08
5.08653e-06
-1.85039e-08
5.10677e-06
-1.48396e-08
5.1253e-06
-1.14291e-08
5.14221e-06
-8.24906e-09
5.15759e-06
-5.29385e-09
5.17153e-06
-2.5469e-09
5.18411e-06
1.26771e-11
5.19539e-06
2.42825e-09
5.20547e-06
4.6501e-09
5.2144e-06
6.72838e-09
5.22226e-06
8.67157e-09
5.2291e-06
1.04958e-08
5.23497e-06
1.21883e-08
5.23995e-06
1.37629e-08
5.24408e-06
1.52296e-08
5.24741e-06
1.66004e-08
5.24999e-06
1.78831e-08
5.25187e-06
1.90824e-08
5.25307e-06
2.02026e-08
5.25364e-06
2.12493e-08
5.25363e-06
2.22284e-08
5.25305e-06
2.31449e-08
5.25195e-06
2.4004e-08
5.25035e-06
2.48098e-08
5.24828e-06
2.55659e-08
5.24576e-06
2.62747e-08
5.24283e-06
2.6939e-08
5.23951e-06
2.75627e-08
5.23581e-06
2.81488e-08
5.23176e-06
2.87003e-08
5.22737e-06
2.92199e-08
5.22266e-06
2.97102e-08
5.21766e-06
3.01728e-08
5.21236e-06
3.06095e-08
5.20679e-06
3.10215e-08
5.20097e-06
3.14108e-08
5.1949e-06
3.17797e-08
5.1886e-06
3.21308e-08
5.18206e-06
3.24659e-08
5.17531e-06
3.27859e-08
5.16835e-06
3.30913e-08
5.16119e-06
3.33831e-08
5.15384e-06
3.36626e-08
5.1463e-06
3.39312e-08
5.13859e-06
3.41896e-08
5.1307e-06
3.44382e-08
5.12264e-06
3.46777e-08
5.11442e-06
3.49102e-08
5.10603e-06
3.51377e-08
5.09749e-06
3.53607e-08
5.0888e-06
3.55782e-08
5.07996e-06
3.57886e-08
5.07097e-06
3.59914e-08
5.06184e-06
3.61891e-08
5.05256e-06
3.63858e-08
5.04314e-06
3.65841e-08
5.03357e-06
3.67827e-08
5.02387e-06
3.69784e-08
5.01403e-06
3.71695e-08
5.00404e-06
3.73569e-08
4.99392e-06
3.75446e-08
4.98366e-06
3.77371e-08
4.97325e-06
3.79371e-08
4.9627e-06
3.81441e-08
4.95201e-06
3.83553e-08
4.94116e-06
3.85714e-08
4.93017e-06
3.87944e-08
4.91902e-06
3.90313e-08
4.90771e-06
3.9284e-08
4.89622e-06
3.95684e-08
4.88456e-06
3.98682e-08
4.8727e-06
4.02332e-08
4.86065e-06
4.05949e-08
4.84834e-06
4.11068e-08
4.83585e-06
4.15267e-08
4.82295e-06
4.23734e-08
4.80997e-06
4.2661e-08
4.79616e-06
4.45904e-08
4.78282e-06
4.35534e-08
4.76717e-06
4.94417e-08
4.75425e-06
4.25113e-08
4.73454e-06
6.04281e-08
4.72382e-06
3.72449e-08
4.69682e-06
8.02971e-08
4.68887e-06
3.10696e-08
4.65415e-06
1.04176e-07
4.64279e-06
3.80229e-08
4.60572e-06
1.26886e-07
4.57744e-06
6.68597e-08
4.53892e-06
1.71004e-07
4.48158e-06
1.19658e-07
4.43367e-06
2.6808e-07
2.65634e-07
4.32567e-06
-1.28671e-07
5.35697e-07
-2.85802e-07
6.07074e-07
-4.44607e-07
6.08361e-07
-6.01923e-07
6.10735e-07
-7.61437e-07
6.14799e-07
-9.22459e-07
6.17591e-07
-1.08437e-06
6.18742e-07
-1.24739e-06
6.18835e-07
-1.41119e-06
6.1716e-07
-1.57513e-06
6.13109e-07
-1.73826e-06
6.06145e-07
-1.89989e-06
5.96041e-07
-2.0588e-06
5.81973e-07
-2.21387e-06
5.63582e-07
-2.36352e-06
5.40159e-07
-2.50634e-06
5.11285e-07
-2.64032e-06
4.76226e-07
-2.76355e-06
4.3474e-07
-2.87385e-06
3.86386e-07
-2.96902e-06
3.31229e-07
-3.04696e-06
2.69283e-07
-3.10563e-06
2.01094e-07
-3.14325e-06
1.27311e-07
-3.15827e-06
4.90637e-08
-3.14921e-06
-3.52492e-08
-3.11484e-06
-1.23046e-07
-3.055e-06
-2.11443e-07
-2.97016e-06
-2.99245e-07
-2.86071e-06
-3.85545e-07
-2.72774e-06
-4.68681e-07
-2.57294e-06
-5.47185e-07
-2.39757e-06
-6.20764e-07
-2.20418e-06
-6.87244e-07
-1.99477e-06
-7.4678e-07
-1.77202e-06
-7.98049e-07
-1.53838e-06
-8.40976e-07
-1.29655e-06
-8.75198e-07
-1.04897e-06
-9.00911e-07
-7.98005e-07
-9.18367e-07
-5.4617e-07
-9.27677e-07
-2.94567e-07
-9.30206e-07
-4.57621e-08
-9.25984e-07
1.99446e-07
-9.16164e-07
4.39757e-07
-9.01424e-07
6.74301e-07
-8.82541e-07
9.02414e-07
-8.60248e-07
1.12362e-06
-8.3522e-07
1.33757e-06
-8.08061e-07
1.54409e-06
-7.79301e-07
1.74304e-06
-7.49398e-07
1.9344e-06
-7.1874e-07
2.11819e-06
-6.87656e-07
2.29449e-06
-6.56428e-07
2.4634e-06
-6.25291e-07
2.62506e-06
-5.94439e-07
2.77961e-06
-5.64036e-07
2.92725e-06
-5.34222e-07
3.06815e-06
-5.05114e-07
3.2025e-06
-4.768e-07
3.33052e-06
-4.49351e-07
3.45241e-06
-4.22826e-07
3.56836e-06
-3.97275e-07
3.67861e-06
-3.72729e-07
3.78335e-06
-3.49203e-07
3.88278e-06
-3.26699e-07
3.9771e-06
-3.05223e-07
4.06651e-06
-2.84771e-07
4.15121e-06
-2.65329e-07
4.23138e-06
-2.46875e-07
4.3072e-06
-2.2938e-07
4.37884e-06
-2.12822e-07
4.44649e-06
-1.97178e-07
4.51031e-06
-1.82405e-07
4.57047e-06
-1.68477e-07
4.6271e-06
-1.55357e-07
4.68038e-06
-1.43001e-07
4.73045e-06
-1.31371e-07
4.77746e-06
-1.20438e-07
4.82154e-06
-1.10167e-07
4.86283e-06
-1.00517e-07
4.90147e-06
-9.14622e-08
4.93759e-06
-8.29579e-08
4.97129e-06
-7.49774e-08
5.00272e-06
-6.74955e-08
5.03195e-06
-6.04688e-08
5.0591e-06
-5.38903e-08
5.08436e-06
-4.77148e-08
5.10776e-06
-4.19093e-08
5.1294e-06
-3.64776e-08
5.14937e-06
-3.13994e-08
5.16777e-06
-2.66467e-08
5.18467e-06
-2.21962e-08
5.20015e-06
-1.80228e-08
5.21428e-06
-1.41158e-08
5.22716e-06
-1.04516e-08
5.23883e-06
-7.01995e-09
5.24936e-06
-3.80762e-09
5.25886e-06
-8.30063e-10
5.26734e-06
2.01609e-09
5.27487e-06
4.66178e-09
5.2815e-06
7.13635e-09
5.28727e-06
9.45083e-09
5.29225e-06
1.1621e-08
5.29648e-06
1.36566e-08
5.3e-06
1.55649e-08
5.30285e-06
1.73529e-08
5.30507e-06
1.90288e-08
5.3067e-06
2.05995e-08
5.30777e-06
2.20725e-08
5.30832e-06
2.34561e-08
5.30837e-06
2.47579e-08
5.30795e-06
2.59822e-08
5.3071e-06
2.71314e-08
5.30583e-06
2.82085e-08
5.30417e-06
2.92189e-08
5.30215e-06
3.01696e-08
5.29978e-06
3.10671e-08
5.29709e-06
3.19154e-08
5.29408e-06
3.27162e-08
5.29078e-06
3.34706e-08
5.28721e-06
3.41797e-08