/*--------------------------------*- C++ -*----------------------------------*\
| =========                 |                                                 |
| \\      /  F ield         | OpenFOAM: The Open Source CFD Toolbox           |
|  \\    /   O peration     | Version:  2.1.x                                 |
|   \\  /    A nd           | Web:      www.OpenFOAM.org                      |
|    \\/     M anipulation  |                                                 |
\*---------------------------------------------------------------------------*/
FoamFile
{
    version     2.0;
    format      ascii;
    class       volScalarField;
    location    "0.006";
    object      pMean;
}
// * * * * * * * * * * * * * * * * * * * * * * * * * * * * * * * * * * * * * //

dimensions      [0 2 -2 0 0 0 0];

internalField   nonuniform List<scalar> 
12225
(
175.436
159.008
152.341
150.244
148.933
147.629
146.153
144.615
142.929
141.238
139.373
137.476
135.264
132.898
130.06
126.242
121.897
112.121
172.335
158.753
152.437
150.308
148.965
147.631
146.138
144.599
142.916
141.221
139.378
137.45
135.295
132.887
130.07
126.583
121.994
116.61
170.387
159
152.99
150.6
149.123
147.73
146.2
144.629
142.947
141.234
139.42
137.459
135.369
132.932
130.29
127.002
123.336
119.281
168.678
159.179
153.578
150.954
149.354
147.913
146.351
144.745
143.056
141.337
139.542
137.614
135.557
133.26
130.747
127.895
124.852
121.736
167.001
159.22
154.131
151.345
149.626
148.125
146.565
144.922
143.244
141.528
139.767
137.896
135.915
133.771
131.473
129.007
126.492
124.152
165.519
159.136
154.608
151.766
149.92
148.364
146.808
145.168
143.496
141.787
140.056
138.247
136.365
134.369
132.297
130.172
128.102
126.244
164.123
158.904
154.958
152.185
150.207
148.59
147.025
145.409
143.755
142.08
140.389
138.659
136.882
135.054
133.211
131.392
129.682
128.17
163.215
158.65
155.168
152.518
150.484
148.805
147.232
145.632
144.003
142.36
140.711
139.053
137.379
135.693
134.024
132.417
130.933
129.653
162.534
158.417
155.299
152.793
150.747
149.016
147.423
145.844
144.248
142.643
141.042
139.449
137.865
136.299
134.773
133.329
132.015
130.907
161.8
158.142
155.372
153.039
151.03
149.259
147.638
146.075
144.519
142.967
141.429
139.914
138.43
136.987
135.606
134.32
133.171
132.197
161.291
157.893
155.415
153.279
151.341
149.565
147.923
146.364
144.849
143.36
141.899
140.474
139.095
137.776
136.53
135.386
134.377
133.528
160.777
157.626
155.414
153.479
151.642
149.898
148.252
146.705
145.231
143.81
142.433
141.106
139.837
138.637
137.519
136.504
135.617
134.879
160.371
157.428
155.42
153.663
151.943
150.263
148.65
147.126
145.691
144.333
143.044
141.82
140.662
139.579
138.579
137.678
136.895
136.244
160.185
157.331
155.451
153.84
152.245
150.652
149.096
147.615
146.227
144.933
143.728
142.605
141.557
140.585
139.694
138.893
138.2
137.628
160.078
157.285
155.529
154.039
152.562
151.075
149.603
148.187
146.856
145.625
144.498
143.465
142.516
141.644
140.85
140.14
139.524
139.015
160.095
157.389
155.706
154.313
152.939
151.543
150.148
148.8
147.536
146.378
145.327
144.377
143.514
142.731
142.023
141.393
140.85
140.403
160.185
157.566
155.97
154.649
153.343
152.017
150.696
149.426
148.241
147.157
146.18
145.303
144.515
143.805
143.168
142.605
142.123
141.73
160.612
157.99
156.412
155.126
153.841
152.528
151.236
150.014
148.889
147.869
146.956
146.144
145.421
144.772
144.19
143.677
143.24
142.883
161.147
158.484
156.872
155.556
154.248
152.935
151.666
150.481
149.399
148.426
147.561
146.798
146.124
145.521
144.978
144.496
144.082
143.745
161.921
159.113
157.382
155.971
154.603
153.257
151.976
150.799
149.744
148.81
147.986
147.262
146.621
146.048
145.532
145.07
144.673
144.348
162.486
159.644
157.831
156.316
154.857
153.45
152.143
150.974
149.951
149.06
148.279
147.586
146.968
146.413
145.913
145.467
145.084
144.772
163.289
160.306
158.31
156.603
154.998
153.519
152.2
151.055
150.074
149.225
148.476
147.805
147.201
146.655
146.167
145.735
145.367
145.069
164.078
160.951
158.719
156.76
154.997
153.463
152.157
151.061
150.129
149.315
148.589
147.933
147.338
146.801
146.323
145.906
145.553
145.272
165.34
161.726
159.048
156.785
154.882
153.326
152.071
151.036
150.146
149.355
148.644
147.998
147.411
146.883
146.416
146.01
145.671
145.401
166.662
162.475
159.244
156.652
154.643
153.119
151.945
150.973
150.119
149.349
148.65
148.014
147.438
146.921
146.462
146.065
145.733
145.472
168.051
163.154
159.269
156.366
154.306
152.868
151.781
150.865
150.047
149.3
148.619
147.998
147.434
146.926
146.474
146.08
145.75
145.491
169.85
163.78
159.12
155.959
153.937
152.602
151.589
150.724
149.944
149.228
148.57
147.967
147.418
146.92
146.472
146.076
145.739
145.476
171.956
164.251
158.754
155.457
153.576
152.352
151.402
150.58
149.837
149.152
148.519
147.934
147.397
146.907
146.462
146.063
145.717
145.435
174.076
164.541
158.131
154.839
153.17
152.112
151.266
150.507
149.798
149.132
148.509
147.931
147.399
146.912
146.468
146.066
145.705
145.385
177.576
165.385
158.179
154.754
153.055
152.024
151.221
150.495
149.804
149.148
148.529
147.954
147.422
146.936
146.492
146.093
145.735
145.425
134.811
134.821
134.84
134.869
134.909
134.96
135.023
135.098
135.186
135.288
135.403
135.534
135.68
135.842
136.021
136.217
136.43
136.661
136.909
137.174
137.455
137.75
138.059
138.38
138.709
139.046
139.386
139.726
140.064
140.395
140.716
141.024
141.316
141.588
141.839
142.065
142.266
142.439
142.583
142.698
142.783
142.838
142.864
142.861
142.83
142.772
142.688
142.579
142.446
142.291
142.115
141.92
141.706
141.474
141.226
140.964
140.687
140.397
140.095
139.782
139.458
139.125
138.782
138.431
138.073
137.706
137.333
136.954
136.568
136.177
135.78
135.378
134.972
134.56
134.144
133.724
133.3
132.872
132.441
132.005
131.566
131.123
130.677
130.227
129.774
129.317
128.857
128.393
127.927
127.456
126.983
126.505
126.025
125.541
125.053
124.562
124.068
123.57
123.068
122.563
122.054
121.541
121.024
120.504
119.98
119.452
118.92
118.384
117.845
117.301
116.753
116.201
115.645
115.084
114.52
113.951
113.378
112.8
112.218
111.632
111.041
110.445
109.845
109.24
108.631
108.017
107.398
106.774
106.146
105.512
104.874
104.231
103.582
102.929
102.27
101.607
100.938
100.264
99.5844
98.8997
98.2096
97.5141
96.8132
96.1067
95.3947
94.6772
93.9539
93.225
92.4904
91.75
91.0039
90.2519
89.494
88.7303
87.9605
87.1849
86.4032
85.6156
84.822
84.0224
83.2169
82.4056
81.5884
80.7656
79.9372
79.1039
78.265
77.4228
76.5749
75.7269
74.8725
74.0242
73.1689
72.3302
71.4852
70.6771
69.866
69.1379
68.4323
67.8955
134.706
134.716
134.736
134.765
134.805
134.857
134.92
134.996
135.085
135.187
135.304
135.435
135.583
135.747
135.927
136.125
136.341
136.575
136.826
137.095
137.379
137.68
137.993
138.319
138.654
138.996
139.342
139.688
140.031
140.368
140.694
141.007
141.304
141.58
141.834
142.064
142.267
142.442
142.588
142.704
142.789
142.845
142.871
142.868
142.836
142.778
142.693
142.583
142.45
142.294
142.117
141.92
141.705
141.473
141.224
140.961
140.684
140.393
140.091
139.777
139.453
139.119
138.776
138.425
138.066
137.7
137.326
136.947
136.561
136.17
135.773
135.371
134.965
134.554
134.138
133.718
133.295
132.867
132.435
132
131.561
131.118
130.672
130.222
129.769
129.313
128.853
128.389
127.923
127.452
126.979
126.502
126.021
125.538
125.05
124.559
124.065
123.567
123.065
122.56
122.051
121.538
121.022
120.502
119.978
119.45
118.918
118.382
117.842
117.299
116.751
116.199
115.643
115.082
114.518
113.949
113.376
112.798
112.216
111.63
111.039
110.444
109.844
109.239
108.63
108.015
107.397
106.773
106.144
105.511
104.873
104.23
103.581
102.928
102.269
101.606
100.937
100.263
99.5834
98.8987
98.2087
97.5132
96.8123
96.1058
95.3939
94.6763
93.9531
93.2242
92.4896
91.7492
91.0031
90.2511
89.4933
88.7295
87.9598
87.1842
86.4025
85.6149
84.8213
84.0217
83.2162
82.4048
81.5876
80.7648
79.9363
79.1029
78.2638
77.4217
76.5732
75.7254
74.8702
74.0216
73.1658
72.3249
71.4808
70.6648
69.8579
69.1029
68.3864
67.7174
134.495
134.505
134.524
134.554
134.595
134.647
134.711
134.788
134.878
134.982
135.1
135.234
135.384
135.55
135.734
135.936
136.157
136.395
136.652
136.927
137.22
137.528
137.85
138.186
138.531
138.884
139.241
139.598
139.952
140.299
140.636
140.959
141.264
141.548
141.809
142.045
142.253
142.432
142.58
142.698
142.786
142.842
142.868
142.865
142.833
142.774
142.688
142.577
142.443
142.286
142.108
141.91
141.695
141.461
141.212
140.948
140.67
140.379
140.077
139.763
139.438
139.105
138.762
138.411
138.052
137.686
137.313
136.934
136.548
136.157
135.761
135.36
134.954
134.543
134.128
133.708
133.285
132.857
132.426
131.991
131.553
131.11
130.664
130.215
129.762
129.306
128.846
128.383
127.917
127.447
126.974
126.497
126.017
125.533
125.046
124.555
124.061
123.563
123.061
122.556
122.047
121.535
121.018
120.498
119.974
119.446
118.915
118.379
117.839
117.296
116.748
116.196
115.64
115.08
114.515
113.946
113.373
112.796
112.214
111.628
111.037
110.441
109.841
109.237
108.627
108.013
107.394
106.771
106.142
105.509
104.871
104.228
103.579
102.926
102.267
101.604
100.935
100.261
99.5816
98.8969
98.2069
97.5114
96.8105
96.1041
95.3921
94.6746
93.9514
93.2225
92.488
91.7476
91.0015
90.2495
89.4917
88.7279
87.9582
87.1826
86.4009
85.6133
84.8196
84.02
83.2145
82.403
81.5857
80.7628
79.9341
79.1006
78.2612
77.4187
76.57
75.7212
74.8658
74.0149
73.1594
72.313
71.4699
70.6412
69.8328
69.0439
68.3002
67.5419
134.171
134.182
134.201
134.231
134.272
134.325
134.39
134.468
134.559
134.664
134.785
134.921
135.074
135.244
135.433
135.64
135.866
136.113
136.378
136.663
136.967
137.287
137.624
137.974
138.336
138.705
139.079
139.453
139.825
140.189
140.541
140.879
141.198
141.494
141.766
142.011
142.227
142.413
142.566
142.688
142.778
142.836
142.863
142.86
142.828
142.768
142.682
142.57
142.434
142.276
142.097
141.899
141.682
141.448
141.198
140.933
140.655
140.364
140.061
139.747
139.422
139.088
138.746
138.395
138.036
137.67
137.298
136.919
136.534
136.143
135.747
135.347
134.941
134.531
134.116
133.697
133.274
132.847
132.416
131.982
131.543
131.101
130.656
130.207
129.755
129.299
128.839
128.377
127.91
127.441
126.968
126.491
126.011
125.528
125.041
124.55
124.056
123.558
123.057
122.552
122.043
121.531
121.015
120.495
119.971
119.443
118.912
118.376
117.837
117.293
116.745
116.193
115.637
115.077
114.513
113.944
113.371
112.794
112.212
111.625
111.035
110.439
109.839
109.235
108.625
108.011
107.393
106.769
106.141
105.507
104.869
104.226
103.578
102.924
102.266
101.602
100.933
100.259
99.5801
98.8955
98.2055
97.51
96.8091
96.1027
95.3908
94.6733
93.9501
93.2212
92.4866
91.7463
91.0002
90.2482
89.4904
88.7266
87.9569
87.1812
86.3996
85.6119
84.8182
84.0186
83.2129
82.4014
81.5839
80.7608
79.932
79.0981
78.2585
77.4151
76.5664
75.7156
74.8606
74.006
73.1508
72.2979
71.4534
70.6126
69.7938
68.9775
68.1943
67.3726
133.73
133.741
133.76
133.789
133.83
133.882
133.948
134.026
134.118
134.224
134.346
134.485
134.641
134.814
135.007
135.22
135.454
135.709
135.986
136.284
136.602
136.94
137.296
137.667
138.051
138.444
138.842
139.242
139.638
140.026
140.402
140.761
141.099
141.414
141.702
141.961
142.188
142.383
142.544
142.672
142.765
142.826
142.855
142.853
142.821
142.76
142.673
142.56
142.423
142.264
142.084
141.884
141.667
141.432
141.181
140.916
140.637
140.345
140.042
139.728
139.403
139.07
138.727
138.376
138.018
137.652
137.28
136.902
136.517
136.127
135.732
135.331
134.926
134.516
134.102
133.684
133.261
132.835
132.405
131.97
131.533
131.091
130.646
130.198
129.746
129.29
128.831
128.369
127.903
127.434
126.961
126.485
126.005
125.522
125.035
124.545
124.051
123.553
123.052
122.547
122.039
121.527
121.011
120.491
119.967
119.44
118.908
118.373
117.833
117.29
116.742
116.191
115.635
115.075
114.51
113.942
113.369
112.791
112.21
111.623
111.032
110.437
109.837
109.233
108.624
108.01
107.391
106.767
106.139
105.506
104.867
104.224
103.576
102.923
102.264
101.601
100.932
100.258
99.5787
98.894
98.204
97.5086
96.8077
96.1014
95.3895
94.6719
93.9488
93.2199
92.4853
91.745
90.9989
90.2469
89.4891
88.7253
87.9556
87.1799
86.3982
85.6105
84.8168
84.017
83.2113
82.3996
81.582
80.7587
79.9296
79.0952
78.2554
77.411
76.562
75.7093
74.8541
73.9959
73.1398
72.2809
71.4321
70.5805
69.747
68.9081
68.085
67.2206
133.158
133.169
133.188
133.217
133.258
133.31
133.374
133.451
133.542
133.648
133.769
133.908
134.064
134.239
134.436
134.653
134.894
135.158
135.447
135.76
136.097
136.456
136.837
137.236
137.65
138.076
138.509
138.943
139.374
139.796
140.204
140.593
140.96
141.3
141.61
141.888
142.131
142.339
142.511
142.646
142.746
142.811
142.842
142.841
142.809
142.749
142.661
142.547
142.409
142.249
142.068
141.867
141.649
141.413
141.162
140.896
140.616
140.324
140.021
139.706
139.382
139.048
138.706
138.356
137.997
137.632
137.261
136.883
136.499
136.109
135.714
135.315
134.91
134.501
134.087
133.67
133.248
132.822
132.392
131.958
131.521
131.08
130.636
130.188
129.736
129.281
128.823
128.36
127.895
127.426
126.954
126.478
125.998
125.515
125.029
124.539
124.045
123.548
123.047
122.543
122.034
121.522
121.007
120.487
119.963
119.436
118.905
118.369
117.83
117.287
116.739
116.188
115.632
115.072
114.508
113.939
113.366
112.789
112.207
111.621
111.03
110.435
109.835
109.231
108.622
108.008
107.389
106.766
106.137
105.504
104.866
104.223
103.574
102.921
102.263
101.599
100.93
100.257
99.5772
98.8926
98.2026
97.5072
96.8064
96.1
95.3882
94.6707
93.9475
93.2186
92.4841
91.7437
90.9976
90.2457
89.4878
88.7241
87.9543
87.1786
86.3969
85.6091
84.8153
84.0155
83.2096
82.3978
81.58
80.7564
79.927
79.0921
78.2518
77.4065
76.5568
75.7026
74.846
73.9851
73.126
72.2624
71.4064
70.5458
69.6954
68.8375
67.9786
67.0824
132.461
132.471
132.486
132.51
132.546
132.593
132.653
132.725
132.811
132.912
133.028
133.162
133.315
133.488
133.683
133.902
134.146
134.418
134.717
135.047
135.404
135.791
136.203
136.639
137.094
137.565
138.044
138.527
139.005
139.474
139.927
140.359
140.764
141.139
141.48
141.784
142.05
142.276
142.462
142.608
142.716
142.787
142.822
142.823
142.792
142.732
142.644
142.53
142.391
142.23
142.048
141.847
141.627
141.391
141.139
140.872
140.593
140.301
139.997
139.683
139.358
139.025
138.683
138.333
137.975
137.61
137.239
136.862
136.478
136.09
135.695
135.296
134.892
134.484
134.071
133.654
133.233
132.807
132.378
131.945
131.509
131.068
130.624
130.177
129.726
129.271
128.813
128.352
127.886
127.418
126.946
126.47
125.991
125.509
125.023
124.533
124.04
123.543
123.042
122.538
122.03
121.518
121.002
120.483
119.959
119.432
118.901
118.366
117.827
117.283
116.736
116.185
115.629
115.069
114.505
113.937
113.364
112.787
112.205
111.619
111.028
110.433
109.833
109.229
108.62
108.006
107.387
106.764
106.135
105.502
104.864
104.221
103.573
102.92
102.261
101.598
100.929
100.255
99.5758
98.8912
98.2013
97.5059
96.8051
96.0987
95.3869
94.6694
93.9462
93.2174
92.4828
91.7425
90.9964
90.2444
89.4866
88.7228
87.953
87.1773
86.3955
85.6076
84.8138
84.0138
83.2078
82.3958
81.5778
80.7539
79.9241
79.0887
78.2478
77.4016
76.551
75.6951
74.8368
73.9732
73.1103
72.2423
71.3779
70.5087
69.6416
68.7659
67.8778
66.9552
131.588
131.6
131.616
131.641
131.674
131.716
131.768
131.831
131.906
131.994
132.097
132.217
132.356
132.516
132.7
132.91
133.15
133.423
133.729
134.072
134.453
134.87
135.322
135.806
136.317
136.85
137.395
137.945
138.492
139.027
139.543
140.035
140.494
140.918
141.301
141.641
141.937
142.187
142.393
142.554
142.673
142.751
142.791
142.796
142.768
142.708
142.621
142.506
142.368
142.206
142.024
141.822
141.601
141.365
141.112
140.846
140.566
140.274
139.97
139.656
139.332
138.999
138.657
138.308
137.951
137.586
137.216
136.839
136.457
136.068
135.675
135.277
134.874
134.466
134.054
133.637
133.217
132.792
132.364
131.931
131.495
131.056
130.612
130.165
129.715
129.261
128.803
128.342
127.877
127.409
126.938
126.462
125.984
125.502
125.016
124.526
124.033
123.537
123.036
122.532
122.024
121.513
120.998
120.478
119.955
119.428
118.897
118.362
117.823
117.28
116.733
116.182
115.626
115.066
114.502
113.934
113.361
112.784
112.203
111.617
111.026
110.431
109.831
109.227
108.618
108.004
107.385
106.762
106.134
105.501
104.862
104.219
103.571
102.918
102.26
101.596
100.928
100.254
99.5744
98.8898
98.1999
97.5045
96.8038
96.0975
95.3856
94.6681
93.945
93.2161
92.4816
91.7413
90.9951
90.2432
89.4853
88.7215
87.9517
87.1759
86.3941
85.6062
84.8122
84.0122
83.206
82.3938
81.5755
80.7512
79.9211
79.085
78.2435
77.3963
76.5445
75.6871
74.8266
73.9603
73.0932
72.2205
71.3478
70.4698
69.5874
68.695
67.7833
66.8383
130.603
130.607
130.609
130.617
130.631
130.655
130.689
130.732
130.783
130.845
130.92
131.012
131.123
131.254
131.409
131.594
131.813
132.071
132.373
132.723
133.124
133.575
134.077
134.625
135.213
135.833
136.474
137.124
137.771
138.403
139.011
139.587
140.124
140.615
141.057
141.447
141.783
142.066
142.297
142.478
142.612
142.7
142.748
142.758
142.733
142.676
142.589
142.476
142.337
142.176
141.993
141.791
141.571
141.334
141.082
140.815
140.536
140.244
139.94
139.627
139.303
138.97
138.629
138.28
137.924
137.561
137.191
136.815
136.433
136.046
135.653
135.256
134.853
134.446
134.035
133.619
133.2
132.776
132.348
131.916
131.481
131.042
130.599
130.153
129.703
129.249
128.792
128.332
127.868
127.4
126.929
126.454
125.976
125.494
125.009
124.52
124.027
123.531
123.03
122.527
122.019
121.508
120.993
120.474
119.951
119.424
118.893
118.358
117.82
117.277
116.73
116.178
115.623
115.063
114.499
113.931
113.359
112.782
112.2
111.614
111.024
110.429
109.829
109.225
108.616
108.002
107.383
106.76
106.132
105.499
104.861
104.218
103.57
102.917
102.258
101.595
100.926
100.252
99.573
98.8885
98.1986
97.5033
96.8025
96.0962
95.3844
94.6669
93.9437
93.2149
92.4804
91.7401
90.9939
90.242
89.4841
88.7202
87.9504
87.1745
86.3927
85.6047
84.8106
84.0104
83.2041
82.3917
81.5731
80.7485
79.9178
79.0812
78.2389
77.3908
76.5376
75.6785
74.8156
73.9467
73.0751
72.1976
71.3168
70.4296
69.5339
68.6258
67.6951
66.7312
129.379
129.383
129.382
129.385
129.393
129.397
129.4
129.405
129.417
129.437
129.464
129.498
129.544
129.61
129.702
129.827
129.992
130.206
130.478
130.815
131.223
131.707
132.268
132.904
133.606
134.361
135.15
135.953
136.751
137.527
138.269
138.969
139.616
140.204
140.728
141.186
141.577
141.904
142.169
142.375
142.528
142.631
142.689
142.706
142.685
142.632
142.548
142.436
142.299
142.139
141.957
141.755
141.536
141.299
141.047
140.781
140.502
140.21
139.907
139.594
139.271
138.939
138.599
138.251
137.895
137.533
137.164
136.789
136.408
136.021
135.63
135.233
134.832
134.426
134.015
133.6
133.181
132.758
132.331
131.901
131.466
131.028
130.586
130.14
129.691
129.238
128.781
128.321
127.858
127.39
126.92
126.446
125.968
125.486
125.001
124.512
124.02
123.524
123.024
122.521
122.014
121.503
120.988
120.469
119.946
119.42
118.889
118.354
117.816
117.273
116.726
116.175
115.62
115.06
114.497
113.928
113.356
112.779
112.198
111.612
111.021
110.426
109.827
109.223
108.614
108
107.382
106.758
106.13
105.497
104.859
104.216
103.568
102.915
102.257
101.593
100.925
100.251
99.5717
98.8872
98.1973
97.502
96.8012
96.095
95.3831
94.6657
93.9425
93.2137
92.4792
91.7389
90.9928
90.2407
89.4828
88.719
87.9491
87.1732
86.3912
85.6032
84.809
84.0087
83.2022
82.3895
81.5707
80.7456
79.9145
79.0772
78.2341
77.3849
76.5303
75.6695
74.8041
73.9324
73.0563
72.1738
71.2855
70.3894
69.4818
68.5595
67.6132
66.6331
128.038
128.037
128.012
127.976
127.933
127.888
127.841
127.79
127.731
127.665
127.597
127.533
127.476
127.429
127.401
127.406
127.459
127.572
127.762
128.041
128.43
128.941
129.582
130.349
131.223
132.182
133.199
134.24
135.273
136.271
137.217
138.102
138.913
139.644
140.287
140.84
141.307
141.692
142
142.24
142.417
142.538
142.609
142.636
142.623
142.575
142.495
142.386
142.252
142.093
141.913
141.713
141.494
141.259
141.007
140.742
140.463
140.173
139.871
139.558
139.236
138.905
138.566
138.218
137.864
137.502
137.135
136.761
136.381
135.995
135.605
135.209
134.809
134.404
133.994
133.58
133.162
132.74
132.314
131.884
131.45
131.013
130.571
130.126
129.678
129.225
128.769
128.31
127.847
127.38
126.91
126.436
125.959
125.478
124.993
124.505
124.013
123.517
123.018
122.515
122.008
121.497
120.983
120.464
119.942
119.415
118.885
118.35
117.812
117.269
116.723
116.172
115.617
115.057
114.494
113.926
113.353
112.776
112.195
111.609
111.019
110.424
109.825
109.221
108.612
107.998
107.38
106.757
106.128
105.495
104.857
104.215
103.567
102.914
102.255
101.592
100.923
100.25
99.5704
98.8859
98.196
97.5008
96.8
96.0938
95.3819
94.6645
93.9414
93.2126
92.478
91.7377
90.9916
90.2396
89.4816
88.7177
87.9478
87.1718
86.3898
85.6017
84.8074
84.0069
83.2002
82.3873
81.5681
80.7427
79.911
79.0731
78.2291
77.3789
76.5228
75.6603
74.7923
73.9176
73.0372
72.1496
71.2542
70.3497
69.4314
68.4967
67.5369
66.5435
126.457
126.443
126.388
126.316
126.228
126.119
125.986
125.832
125.662
125.473
125.26
125.026
124.772
124.511
124.261
124.046
123.886
123.803
123.827
123.996
124.346
124.898
125.651
126.596
127.716
128.983
130.358
131.78
133.183
134.518
135.764
136.913
137.958
138.891
139.703
140.392
140.961
141.422
141.786
142.067
142.275
142.419
142.507
142.546
142.543
142.503
142.429
142.325
142.195
142.039
141.862
141.664
141.447
141.213
140.963
140.698
140.421
140.131
139.83
139.519
139.198
138.868
138.53
138.184
137.831
137.47
137.104
136.731
136.352
135.968
135.578
135.184
134.785
134.381
133.972
133.559
133.142
132.721
132.296
131.867
131.434
130.997
130.556
130.112
129.664
129.212
128.757
128.298
127.836
127.37
126.9
126.427
125.95
125.47
124.985
124.497
124.006
123.511
123.012
122.509
122.002
121.492
120.977
120.459
119.937
119.411
118.881
118.346
117.808
117.266
116.719
116.168
115.613
115.054
114.491
113.923
113.351
112.774
112.193
111.607
111.017
110.422
109.823
109.219
108.61
107.996
107.378
106.755
106.127
105.494
104.856
104.213
103.565
102.912
102.254
101.591
100.922
100.248
99.5691
98.8846
98.1948
97.4996
96.7988
96.0926
95.3807
94.6633
93.9402
93.2114
92.4769
91.7366
90.9905
90.2384
89.4804
88.7165
87.9465
87.1705
86.3884
85.6002
84.8058
84.0052
83.1983
82.3851
81.5656
80.7397
79.9075
79.0689
78.224
77.3727
76.5151
75.6508
74.7803
73.9026
73.0181
72.1254
71.2235
70.3109
69.3833
68.4374
67.4662
66.4616
124.709
124.677
124.584
124.446
124.26
124.027
123.75
123.429
123.06
122.64
122.169
121.651
121.09
120.492
119.884
119.307
118.807
118.431
118.233
118.277
118.612
119.258
120.205
121.441
122.948
124.689
126.596
128.572
130.504
132.306
133.943
135.422
136.754
137.939
138.97
139.835
140.538
141.095
141.529
141.86
142.104
142.275
142.383
142.437
142.447
142.416
142.35
142.253
142.128
141.977
141.803
141.608
141.393
141.161
140.913
140.65
140.374
140.086
139.786
139.477
139.157
138.829
138.492
138.147
137.795
137.436
137.071
136.699
136.322
135.939
135.551
135.158
134.759
134.356
133.949
133.537
133.121
132.701
132.277
131.848
131.416
130.98
130.541
130.097
129.65
129.199
128.745
128.286
127.825
127.359
126.89
126.417
125.941
125.461
124.977
124.49
123.998
123.503
123.005
122.502
121.996
121.486
120.972
120.454
119.932
119.406
118.876
118.342
117.804
117.262
116.716
116.165
115.61
115.051
114.488
113.92
113.348
112.771
112.19
111.605
111.015
110.42
109.821
109.217
108.608
107.994
107.376
106.753
106.125
105.492
104.854
104.211
103.564
102.911
102.252
101.589
100.921
100.247
99.5678
98.8834
98.1936
97.4984
96.7977
96.0914
95.3796
94.6622
93.9391
93.2103
92.4758
91.7355
90.9893
90.2373
89.4792
88.7152
87.9452
87.1692
86.387
85.5987
84.8042
84.0034
83.1963
82.3828
81.563
80.7367
79.904
79.0647
78.2189
77.3664
76.5073
75.6412
74.7682
73.8876
72.9991
72.1016
71.1937
70.2736
69.3375
68.3819
67.4008
66.3869
122.779
122.71
122.534
122.284
121.959
121.555
121.051
120.447
119.742
118.952
118.074
117.096
116.031
114.916
113.818
112.799
111.917
111.234
110.838
110.826
111.266
112.176
113.529
115.274
117.352
119.693
122.233
124.872
127.459
129.843
131.952
133.794
135.424
136.876
138.146
139.209
140.063
140.73
141.242
141.629
141.912
142.111
142.241
142.313
142.336
142.317
142.261
142.172
142.053
141.908
141.737
141.545
141.333
141.104
140.858
140.597
140.323
140.036
139.739
139.431
139.113
138.786
138.451
138.108
137.758
137.4
137.036
136.666
136.29
135.909
135.522
135.13
134.733
134.331
133.925
133.514
133.099
132.68
132.257
131.83
131.398
130.963
130.524
130.082
129.635
129.185
128.731
128.274
127.813
127.348
126.879
126.407
125.931
125.452
124.968
124.481
123.991
123.496
122.998
122.496
121.99
121.48
120.966
120.449
119.927
119.401
118.872
118.338
117.8
117.258
116.712
116.161
115.607
115.048
114.485
113.917
113.345
112.769
112.188
111.602
111.012
110.418
109.819
109.215
108.606
107.993
107.374
106.751
106.123
105.491
104.853
104.21
103.562
102.909
102.251
101.588
100.919
100.246
99.5666
98.8822
98.1925
97.4972
96.7965
96.0903
95.3785
94.661
93.938
93.2092
92.4747
91.7344
90.9882
90.2361
89.4781
88.7141
87.944
87.1679
86.3857
85.5973
84.8026
84.0016
83.1943
82.3806
81.5604
80.7338
79.9005
79.0605
78.2138
77.3602
76.4996
75.6317
74.7563
73.8727
72.9805
72.0785
71.1649
70.2381
69.2944
68.3303
67.3406
66.3187
120.648
120.521
120.233
119.808
119.243
118.53
117.65
116.594
115.35
113.931
112.356
110.657
108.903
107.202
105.639
104.275
103.143
102.323
101.92
102.051
102.791
104.158
106.1
108.507
111.27
114.318
117.58
120.973
124.336
127.42
130.053
132.265
134.183
135.884
137.368
138.606
139.598
140.366
140.952
141.391
141.713
141.94
142.092
142.181
142.219
142.212
142.166
142.085
141.973
141.832
141.666
141.478
141.269
141.041
140.798
140.539
140.267
139.983
139.688
139.382
139.066
138.741
138.408
138.067
137.718
137.363
137
136.632
136.257
135.877
135.492
135.101
134.706
134.305
133.9
133.491
133.077
132.659
132.237
131.81
131.38
130.946
130.508
130.066
129.62
129.171
128.718
128.261
127.801
127.336
126.868
126.397
125.922
125.443
124.96
124.473
123.983
123.489
122.991
122.489
121.983
121.474
120.96
120.443
119.922
119.396
118.867
118.333
117.796
117.254
116.708
116.158
115.603
115.045
114.482
113.914
113.342
112.766
112.185
111.6
111.01
110.416
109.816
109.213
108.604
107.991
107.373
106.75
106.122
105.489
104.851
104.208
103.561
102.908
102.25
101.586
100.918
100.244
99.5654
98.8811
98.1913
97.4961
96.7954
96.0892
95.3774
94.66
93.9369
93.2082
92.4737
91.7334
90.9872
90.235
89.477
88.7129
87.9428
87.1667
86.3844
85.5958
84.8011
83.9999
83.1924
82.3784
81.5579
80.7308
79.897
79.0564
78.2088
77.3541
76.4921
75.6224
74.7447
73.8583
72.9625
72.0562
71.1375
70.2046
69.254
68.2825
67.2853
66.2566
118.399
118.174
117.66
116.919
115.952
114.756
113.274
111.463
109.331
106.977
104.488
101.932
99.4799
97.3049
95.5224
94.1885
93.2741
92.7537
92.674
93.1543
94.3191
96.2413
98.8867
102.099
105.709
109.585
113.682
117.893
121.95
125.596
128.633
131.119
133.243
135.115
136.746
138.112
139.203
140.046
140.686
141.168
141.522
141.773
141.943
142.048
142.099
142.104
142.067
141.993
141.887
141.752
141.59
141.405
141.199
140.975
140.734
140.478
140.209
139.927
139.634
139.33
139.017
138.694
138.363
138.024
137.677
137.323
136.963
136.596
136.223
135.845
135.461
135.072
134.677
134.278
133.875
133.466
133.054
132.637
132.216
131.79
131.361
130.928
130.491
130.05
129.605
129.156
128.704
128.248
127.788
127.325
126.857
126.386
125.912
125.433
124.951
124.465
123.975
123.481
122.984
122.482
121.977
121.468
120.955
120.438
119.917
119.391
118.862
118.329
117.792
117.25
116.704
116.154
115.6
115.042
114.479
113.911
113.34
112.763
112.183
111.598
111.008
110.413
109.814
109.211
108.602
107.989
107.371
106.748
106.12
105.487
104.85
104.207
103.559
102.906
102.248
101.585
100.917
100.243
99.5642
98.8799
98.1902
97.495
96.7943
96.0881
95.3763
94.6589
93.9359
93.2072
92.4727
91.7323
90.9861
90.234
89.4759
88.7118
87.9417
87.1655
86.3831
85.5945
84.7995
83.9983
83.1905
82.3763
81.5555
80.728
79.8936
79.0523
78.2039
77.3481
76.4847
75.6133
74.7335
73.8444
72.9453
72.035
71.1116
70.1732
69.2166
68.2386
67.2349
66.2003
115.883
115.475
114.616
113.376
111.729
109.69
107.232
104.35
101.14
97.8586
94.607
91.4662
88.6319
86.3025
84.6332
83.7556
83.6294
84.055
84.9313
86.3501
88.4285
91.291
94.8744
98.9475
103.28
107.758
112.344
116.878
121.108
124.847
127.975
130.541
132.724
134.656
136.352
137.781
138.925
139.804
140.469
140.973
141.346
141.613
141.797
141.915
141.978
141.992
141.963
141.896
141.795
141.664
141.506
141.325
141.123
140.902
140.665
140.412
140.146
139.867
139.577
139.276
138.965
138.645
138.316
137.979
137.635
137.283
136.924
136.559
136.188
135.811
135.429
135.041
134.648
134.251
133.848
133.441
133.03
132.614
132.194
131.77
131.342
130.91
130.473
130.033
129.589
129.142
128.69
128.235
127.775
127.313
126.846
126.375
125.901
125.423
124.942
124.456
123.967
123.473
122.976
122.475
121.97
121.462
120.949
120.432
119.911
119.386
118.858
118.325
117.787
117.246
116.7
116.151
115.597
115.038
114.476
113.908
113.337
112.761
112.18
111.595
111.005
110.411
109.812
109.209
108.6
107.987
107.369
106.746
106.119
105.486
104.848
104.206
103.558
102.905
102.247
101.584
100.916
100.242
99.5631
98.8788
98.1891
97.4939
96.7933
96.0871
95.3753
94.6579
93.9349
93.2062
92.4717
91.7313
90.9851
90.2329
89.4748
88.7107
87.9406
87.1643
86.3818
85.5931
84.7981
83.9966
83.1887
82.3742
81.5531
80.7252
79.8904
79.0484
78.1992
77.3424
76.4777
75.6046
74.7228
73.8312
72.9291
72.0151
71.0874
70.1441
69.1822
68.1985
67.1891
66.1494
113.102
112.449
111.061
108.932
106.075
102.692
99.0464
95.0837
90.9981
87.2328
83.9328
81.2359
79.2539
77.9783
77.4726
77.9212
79.2133
81.0268
83.1013
85.5133
88.4243
91.9286
95.9333
100.216
104.597
109.014
113.456
117.734
121.63
125.065
128.003
130.473
132.614
134.533
136.222
137.635
138.764
139.634
140.296
140.801
141.18
141.455
141.648
141.775
141.848
141.87
141.848
141.787
141.691
141.565
141.412
141.236
141.039
140.823
140.59
140.341
140.079
139.804
139.517
139.219
138.911
138.594
138.268
137.933
137.591
137.241
136.884
136.521
136.152
135.777
135.396
135.01
134.619
134.223
133.822
133.416
133.006
132.591
132.172
131.749
131.322
130.891
130.456
130.017
129.573
129.126
128.676
128.221
127.763
127.3
126.834
126.365
125.891