/*--------------------------------*- C++ -*----------------------------------*\
| =========                 |                                                 |
| \\      /  F ield         | OpenFOAM: The Open Source CFD Toolbox           |
|  \\    /   O peration     | Version:  2.1.x                                 |
|   \\  /    A nd           | Web:      www.OpenFOAM.org                      |
|    \\/     M anipulation  |                                                 |
\*---------------------------------------------------------------------------*/
FoamFile
{
    version     2.0;
    format      ascii;
    class       volScalarField;
    location    "0.006";
    object      pPrime2Mean;
}
// * * * * * * * * * * * * * * * * * * * * * * * * * * * * * * * * * * * * * //

dimensions      [0 4 -4 0 0 0 0];

internalField   nonuniform List<scalar> 
12225
(
6.75102e+07
6.64343e+07
6.53245e+07
6.42541e+07
6.32251e+07
6.22352e+07
6.12818e+07
6.0362e+07
5.94728e+07
5.86109e+07
5.77728e+07
5.69546e+07
5.61514e+07
5.53572e+07
5.45636e+07
5.37577e+07
5.29159e+07
5.19812e+07
6.75116e+07
6.64349e+07
6.53249e+07
6.42546e+07
6.32256e+07
6.22359e+07
6.12826e+07
6.03629e+07
5.94739e+07
5.86124e+07
5.77747e+07
5.6957e+07
5.61547e+07
5.53618e+07
5.45703e+07
5.37685e+07
5.29369e+07
5.20297e+07
6.7513e+07
6.64359e+07
6.53259e+07
6.42557e+07
6.32269e+07
6.22374e+07
6.12844e+07
6.03651e+07
5.94767e+07
5.86157e+07
5.7779e+07
5.69626e+07
5.61621e+07
5.53721e+07
5.45854e+07
5.37925e+07
5.29794e+07
5.21287e+07
6.75157e+07
6.64379e+07
6.53277e+07
6.42576e+07
6.32292e+07
6.224e+07
6.12875e+07
6.03689e+07
5.94813e+07
5.86216e+07
5.77864e+07
5.69721e+07
5.61748e+07
5.53895e+07
5.46106e+07
5.38312e+07
5.30445e+07
5.22515e+07
6.75191e+07
6.64409e+07
6.53305e+07
6.42607e+07
6.32327e+07
6.22441e+07
6.12924e+07
6.03748e+07
5.94885e+07
5.86305e+07
5.77976e+07
5.69866e+07
5.61938e+07
5.54154e+07
5.46471e+07
5.38853e+07
5.3129e+07
5.23879e+07
6.75249e+07
6.64455e+07
6.53347e+07
6.42652e+07
6.32377e+07
6.225e+07
6.12993e+07
6.03832e+07
5.94987e+07
5.86432e+07
5.78136e+07
5.7007e+07
5.62204e+07
5.54509e+07
5.4696e+07
5.39545e+07
5.32294e+07
5.25325e+07
6.75343e+07
6.64518e+07
6.53406e+07
6.42714e+07
6.32447e+07
6.22581e+07
6.1309e+07
6.03947e+07
5.95128e+07
5.86605e+07
5.78352e+07
5.70344e+07
5.62557e+07
5.54971e+07
5.47576e+07
5.40379e+07
5.33427e+07
5.26826e+07
6.75426e+07
6.64586e+07
6.53472e+07
6.42785e+07
6.32527e+07
6.22673e+07
6.13198e+07
6.04077e+07
5.95285e+07
5.86798e+07
5.78591e+07
5.70643e+07
5.62936e+07
5.55457e+07
5.48204e+07
5.41195e+07
5.34476e+07
5.28132e+07
6.75511e+07
6.64657e+07
6.53542e+07
6.42861e+07
6.32613e+07
6.22772e+07
6.13315e+07
6.04216e+07
5.95453e+07
5.87002e+07
5.78842e+07
5.70955e+07
5.63327e+07
5.55949e+07
5.48827e+07
5.4198e+07
5.35453e+07
5.29309e+07
6.7559e+07
6.64745e+07
6.53635e+07
6.42961e+07
6.32726e+07
6.22902e+07
6.13468e+07
6.04398e+07
5.95671e+07
5.87266e+07
5.79164e+07
5.7135e+07
5.63814e+07
5.56553e+07
5.49573e+07
5.42896e+07
5.36557e+07
5.30601e+07
6.75691e+07
6.64857e+07
6.53756e+07
6.43093e+07
6.32873e+07
6.23072e+07
6.13666e+07
6.04633e+07
5.95951e+07
5.87603e+07
5.79571e+07
5.71844e+07
5.64414e+07
5.57282e+07
5.50453e+07
5.43948e+07
5.3779e+07
5.32009e+07
6.75792e+07
6.65e+07
6.53913e+07
6.43265e+07
6.33066e+07
6.23293e+07
6.13923e+07
6.04935e+07
5.96309e+07
5.88029e+07
5.8008e+07
5.72453e+07
5.65142e+07
5.58147e+07
5.51475e+07
5.45139e+07
5.39153e+07
5.33532e+07
6.75983e+07
6.65196e+07
6.54119e+07
6.43489e+07
6.33316e+07
6.23578e+07
6.14252e+07
6.05318e+07
5.9676e+07
5.88559e+07
5.80706e+07
5.7319e+07
5.66007e+07
5.59156e+07
5.52641e+07
5.46466e+07
5.4064e+07
5.35166e+07
6.76282e+07
6.65458e+07
6.54385e+07
6.43776e+07
6.33634e+07
6.23938e+07
6.14666e+07
6.05797e+07
5.97316e+07
5.89208e+07
5.8146e+07
5.74064e+07
5.67015e+07
5.60309e+07
5.53945e+07
5.47924e+07
5.42244e+07
5.36902e+07
6.76601e+07
6.65783e+07
6.54722e+07
6.44137e+07
6.34033e+07
6.24387e+07
6.15177e+07
6.06383e+07
5.9799e+07
5.89982e+07
5.82347e+07
5.75076e+07
5.68162e+07
5.61597e+07
5.55377e+07
5.49497e+07
5.43949e+07
5.38725e+07
6.77023e+07
6.66186e+07
6.55136e+07
6.44581e+07
6.34521e+07
6.24932e+07
6.15792e+07
6.07081e+07
5.98783e+07
5.90881e+07
5.83363e+07
5.76217e+07
5.69434e+07
5.63003e+07
5.56915e+07
5.51161e+07
5.4573e+07
5.40611e+07
6.77476e+07
6.66653e+07
6.55627e+07
6.45109e+07
6.351e+07
6.25574e+07
6.1651e+07
6.07887e+07
5.99686e+07
5.91891e+07
5.84488e+07
5.77462e+07
5.70801e+07
5.64493e+07
5.58523e+07
5.52881e+07
5.47552e+07
5.42523e+07
6.77947e+07
6.67143e+07
6.56146e+07
6.45668e+07
6.35709e+07
6.26246e+07
6.17254e+07
6.08712e+07
6.006e+07
5.92901e+07
5.85598e+07
5.78675e+07
5.72116e+07
5.65907e+07
5.60033e+07
5.5448e+07
5.49232e+07
5.44274e+07
6.78368e+07
6.67582e+07
6.5661e+07
6.46165e+07
6.3625e+07
6.26837e+07
6.17902e+07
6.09424e+07
6.01382e+07
5.93756e+07
5.86528e+07
5.7968e+07
5.73196e+07
5.67058e+07
5.61252e+07
5.55761e+07
5.5057e+07
5.45662e+07
6.78707e+07
6.67942e+07
6.56989e+07
6.46569e+07
6.36685e+07
6.27309e+07
6.18418e+07
6.09987e+07
6.01995e+07
5.94421e+07
5.87246e+07
5.80451e+07
5.74019e+07
5.67931e+07
5.62171e+07
5.56723e+07
5.5157e+07
5.46696e+07
6.78999e+07
6.68234e+07
6.57291e+07
6.46889e+07
6.37028e+07
6.2768e+07
6.1882e+07
6.10424e+07
6.02468e+07
5.94932e+07
5.87794e+07
5.81037e+07
5.74641e+07
5.68588e+07
5.62861e+07
5.57442e+07
5.52315e+07
5.47465e+07
6.79228e+07
6.68464e+07
6.57527e+07
6.47137e+07
6.37293e+07
6.27965e+07
6.19128e+07
6.10757e+07
6.02827e+07
5.95318e+07
5.88208e+07
5.81477e+07
5.75107e+07
5.69079e+07
5.63374e+07
5.57976e+07
5.52868e+07
5.48034e+07
6.79409e+07
6.68641e+07
6.57708e+07
6.47326e+07
6.37494e+07
6.28181e+07
6.1936e+07
6.11006e+07
6.03096e+07
5.95606e+07
5.88515e+07
5.81804e+07
5.75452e+07
5.69441e+07
5.63753e+07
5.5837e+07
5.53275e+07
5.48452e+07
6.79555e+07
6.68775e+07
6.57842e+07
6.47467e+07
6.37643e+07
6.28341e+07
6.19532e+07
6.1119e+07
6.03293e+07
5.95817e+07
5.88741e+07
5.82043e+07
5.75704e+07
5.69705e+07
5.64028e+07
5.58656e+07
5.5357e+07
5.48756e+07
6.79653e+07
6.6887e+07
6.5794e+07
6.47569e+07
6.37751e+07
6.28456e+07
6.19655e+07
6.11323e+07
6.03435e+07
5.95969e+07
5.88902e+07
5.82214e+07
5.75884e+07
5.69894e+07
5.64225e+07
5.5886e+07
5.53781e+07
5.48972e+07
6.79711e+07
6.68933e+07
6.58008e+07
6.47641e+07
6.37828e+07
6.28538e+07
6.19742e+07
6.11416e+07
6.03535e+07
5.96075e+07
5.89015e+07
5.82333e+07
5.7601e+07
5.70026e+07
5.64362e+07
5.59002e+07
5.53927e+07
5.49122e+07
6.79728e+07
6.68972e+07
6.58053e+07
6.4769e+07
6.3788e+07
6.28593e+07
6.19801e+07
6.11479e+07
6.03602e+07
5.96146e+07
5.89091e+07
5.82413e+07
5.76094e+07
5.70114e+07
5.64454e+07
5.59096e+07
5.54025e+07
5.49223e+07
6.79749e+07
6.68997e+07
6.58083e+07
6.47722e+07
6.37913e+07
6.28627e+07
6.19838e+07
6.11518e+07
6.03644e+07
5.96191e+07
5.89138e+07
5.82464e+07
5.76147e+07
5.70169e+07
5.64511e+07
5.59156e+07
5.54086e+07
5.49286e+07
6.79753e+07
6.69011e+07
6.58101e+07
6.4774e+07
6.37932e+07
6.28647e+07
6.19859e+07
6.1154e+07
6.03668e+07
5.96216e+07
5.89165e+07
5.82492e+07
5.76176e+07
5.702e+07
5.64543e+07
5.59189e+07
5.54121e+07
5.49321e+07
6.79747e+07
6.69014e+07
6.58107e+07
6.47748e+07
6.3794e+07
6.28655e+07
6.19867e+07
6.1155e+07
6.03677e+07
5.96227e+07
5.89176e+07
5.82503e+07
5.76189e+07
5.70213e+07
5.64557e+07
5.59203e+07
5.54135e+07
5.49336e+07
4.39209e+07
4.39174e+07
4.39103e+07
4.38997e+07
4.38852e+07
4.38671e+07
4.3845e+07
4.38191e+07
4.37893e+07
4.37554e+07
4.37175e+07
4.36756e+07
4.36295e+07
4.35793e+07
4.35249e+07
4.34664e+07
4.34037e+07
4.33369e+07
4.32658e+07
4.31906e+07
4.31112e+07
4.30276e+07
4.29399e+07
4.28481e+07
4.27522e+07
4.26523e+07
4.25483e+07
4.24404e+07
4.23285e+07
4.22127e+07
4.20931e+07
4.19697e+07
4.18425e+07
4.17116e+07
4.15771e+07
4.1439e+07
4.12974e+07
4.11522e+07
4.10037e+07
4.08517e+07
4.06965e+07
4.0538e+07
4.03763e+07
4.02115e+07
4.00436e+07
3.98727e+07
3.96988e+07
3.9522e+07
3.93423e+07
3.91599e+07
3.89747e+07
3.87868e+07
3.85962e+07
3.84031e+07
3.82075e+07
3.80093e+07
3.78088e+07
3.76058e+07
3.74005e+07
3.7193e+07
3.69832e+07
3.67711e+07
3.6557e+07
3.63407e+07
3.61224e+07
3.59021e+07
3.56797e+07
3.54555e+07
3.52293e+07
3.50013e+07
3.47715e+07
3.45398e+07
3.43065e+07
3.40714e+07
3.38346e+07
3.35962e+07
3.33562e+07
3.31146e+07
3.28715e+07
3.26269e+07
3.23808e+07
3.21332e+07
3.18842e+07
3.16339e+07
3.13822e+07
3.11291e+07
3.08748e+07
3.06192e+07
3.03623e+07
3.01042e+07
2.98449e+07
2.95845e+07
2.93229e+07
2.90602e+07
2.87965e+07
2.85316e+07
2.82658e+07
2.79989e+07
2.7731e+07
2.74622e+07
2.71924e+07
2.69218e+07
2.66502e+07
2.63778e+07
2.61046e+07
2.58305e+07
2.55557e+07
2.52801e+07
2.50037e+07
2.47267e+07
2.4449e+07
2.41706e+07
2.38916e+07
2.3612e+07
2.33318e+07
2.30511e+07
2.27698e+07
2.2488e+07
2.22058e+07
2.19232e+07
2.16401e+07
2.13566e+07
2.10728e+07
2.07887e+07
2.05043e+07
2.02196e+07
1.99347e+07
1.96496e+07
1.93643e+07
1.90789e+07
1.87934e+07
1.85079e+07
1.82223e+07
1.79367e+07
1.76512e+07
1.73657e+07
1.70804e+07
1.67953e+07
1.65103e+07
1.62256e+07
1.59412e+07
1.56571e+07
1.53733e+07
1.509e+07
1.48071e+07
1.45247e+07
1.42429e+07
1.39617e+07
1.36811e+07
1.34013e+07
1.31221e+07
1.28438e+07
1.25663e+07
1.22898e+07
1.20142e+07
1.17396e+07
1.14661e+07
1.11938e+07
1.09226e+07
1.06527e+07
1.03842e+07
1.0117e+07
9.85128e+06
9.58712e+06
9.32457e+06
9.0637e+06
8.8046e+06
8.54736e+06
8.29207e+06
8.03881e+06
7.78771e+06
7.53888e+06
7.29245e+06
7.04858e+06
6.80746e+06
6.56933e+06
6.3345e+06
6.10346e+06
5.87701e+06
5.65691e+06
4.39369e+07
4.39334e+07
4.39263e+07
4.39155e+07
4.3901e+07
4.38827e+07
4.38606e+07
4.38345e+07
4.38045e+07
4.37704e+07
4.37323e+07
4.36901e+07
4.36438e+07
4.35934e+07
4.35387e+07
4.34799e+07
4.34169e+07
4.33498e+07
4.32784e+07
4.32028e+07
4.31231e+07
4.30392e+07
4.29512e+07
4.2859e+07
4.27628e+07
4.26625e+07
4.25582e+07
4.24499e+07
4.23377e+07
4.22216e+07
4.21017e+07
4.19779e+07
4.18504e+07
4.17192e+07
4.15844e+07
4.1446e+07
4.1304e+07
4.11586e+07
4.10098e+07
4.08576e+07
4.07021e+07
4.05433e+07
4.03814e+07
4.02163e+07
4.00482e+07
3.98771e+07
3.9703e+07
3.9526e+07
3.93461e+07
3.91634e+07
3.89781e+07
3.879e+07
3.85993e+07
3.8406e+07
3.82102e+07
3.80119e+07
3.78112e+07
3.76082e+07
3.74028e+07
3.71951e+07
3.69851e+07
3.6773e+07
3.65588e+07
3.63424e+07
3.6124e+07
3.59035e+07
3.56811e+07
3.54568e+07
3.52305e+07
3.50025e+07
3.47725e+07
3.45409e+07
3.43074e+07
3.40723e+07
3.38355e+07
3.3597e+07
3.3357e+07
3.31153e+07
3.28722e+07
3.26275e+07
3.23813e+07
3.21338e+07
3.18847e+07
3.16344e+07
3.13826e+07
3.11295e+07
3.08752e+07
3.06195e+07
3.03626e+07
3.01045e+07
2.98452e+07
2.95848e+07
2.93232e+07
2.90605e+07
2.87967e+07
2.85318e+07
2.82659e+07
2.7999e+07
2.77312e+07
2.74623e+07
2.71926e+07
2.69219e+07
2.66503e+07
2.63779e+07
2.61047e+07
2.58306e+07
2.55558e+07
2.52802e+07
2.50038e+07
2.47268e+07
2.44491e+07
2.41707e+07
2.38917e+07
2.3612e+07
2.33318e+07
2.30511e+07
2.27698e+07
2.24881e+07
2.22059e+07
2.19232e+07
2.16401e+07
2.13566e+07
2.10728e+07
2.07887e+07
2.05043e+07
2.02196e+07
1.99347e+07
1.96496e+07
1.93643e+07
1.90789e+07
1.87934e+07
1.85079e+07
1.82223e+07
1.79367e+07
1.76512e+07
1.73657e+07
1.70804e+07
1.67953e+07
1.65103e+07
1.62256e+07
1.59412e+07
1.56571e+07
1.53733e+07
1.509e+07
1.48071e+07
1.45248e+07
1.42429e+07
1.39617e+07
1.36811e+07
1.34013e+07
1.31221e+07
1.28438e+07
1.25663e+07
1.22898e+07
1.20142e+07
1.17396e+07
1.14661e+07
1.11938e+07
1.09226e+07
1.06527e+07
1.03841e+07
1.0117e+07
9.85128e+06
9.58711e+06
9.32455e+06
9.06369e+06
8.80459e+06
8.54734e+06
8.29204e+06
8.03878e+06
7.78767e+06
7.53882e+06
7.29238e+06
7.04848e+06
6.80733e+06
6.56914e+06
6.33423e+06
6.10303e+06
5.87625e+06
5.65513e+06
4.39691e+07
4.39655e+07
4.39583e+07
4.39473e+07
4.39327e+07
4.39141e+07
4.38917e+07
4.38653e+07
4.38349e+07
4.38005e+07
4.3762e+07
4.37193e+07
4.36725e+07
4.36215e+07
4.35664e+07
4.3507e+07
4.34434e+07
4.33756e+07
4.33036e+07
4.32274e+07
4.3147e+07
4.30624e+07
4.29737e+07
4.28809e+07
4.27839e+07
4.2683e+07
4.2578e+07
4.2469e+07
4.23561e+07
4.22393e+07
4.21187e+07
4.19943e+07
4.18662e+07
4.17344e+07
4.15989e+07
4.14599e+07
4.13174e+07
4.11714e+07
4.1022e+07
4.08692e+07
4.07132e+07
4.0554e+07
4.03915e+07
4.0226e+07
4.00574e+07
3.98858e+07
3.97113e+07
3.95339e+07
3.93536e+07
3.91706e+07
3.89849e+07
3.87965e+07
3.86054e+07
3.84118e+07
3.82157e+07
3.80172e+07
3.78162e+07
3.76128e+07
3.74072e+07
3.71992e+07
3.69891e+07
3.67767e+07
3.65623e+07
3.63457e+07
3.61271e+07
3.59065e+07
3.56839e+07
3.54594e+07
3.5233e+07
3.50048e+07
3.47747e+07
3.45429e+07
3.43093e+07
3.40741e+07
3.38372e+07
3.35986e+07
3.33585e+07
3.31167e+07
3.28735e+07
3.26287e+07
3.23825e+07
3.21348e+07
3.18857e+07
3.16353e+07
3.13835e+07
3.11303e+07
3.08759e+07
3.06202e+07
3.03633e+07
3.01051e+07
2.98458e+07
2.95853e+07
2.93237e+07
2.90609e+07
2.87971e+07
2.85322e+07
2.82663e+07
2.79994e+07
2.77315e+07
2.74626e+07
2.71928e+07
2.69221e+07
2.66506e+07
2.63781e+07
2.61049e+07
2.58308e+07
2.55559e+07
2.52803e+07
2.5004e+07
2.47269e+07
2.44492e+07
2.41708e+07
2.38918e+07
2.36121e+07
2.33319e+07
2.30512e+07
2.27699e+07
2.24881e+07
2.22059e+07
2.19232e+07
2.16402e+07
2.13567e+07
2.10729e+07
2.07887e+07
2.05043e+07
2.02196e+07
1.99347e+07
1.96496e+07
1.93643e+07
1.90789e+07
1.87934e+07
1.85079e+07
1.82223e+07
1.79367e+07
1.76512e+07
1.73658e+07
1.70804e+07
1.67953e+07
1.65103e+07
1.62256e+07
1.59412e+07
1.56571e+07
1.53733e+07
1.509e+07
1.48071e+07
1.45248e+07
1.42429e+07
1.39617e+07
1.36811e+07
1.34013e+07
1.31221e+07
1.28438e+07
1.25663e+07
1.22898e+07
1.20142e+07
1.17396e+07
1.14661e+07
1.11938e+07
1.09226e+07
1.06527e+07
1.03841e+07
1.0117e+07
9.85126e+06
9.58709e+06
9.32453e+06
9.06366e+06
8.80455e+06
8.5473e+06
8.29198e+06
8.03871e+06
7.78758e+06
7.53871e+06
7.29223e+06
7.04829e+06
6.80706e+06
6.56877e+06
6.3337e+06
6.10222e+06
5.87488e+06
5.65235e+06
4.40176e+07
4.40139e+07
4.40065e+07
4.39953e+07
4.39803e+07
4.39614e+07
4.39386e+07
4.39117e+07
4.38808e+07
4.38458e+07
4.38066e+07
4.37633e+07
4.37157e+07
4.36639e+07
4.36079e+07
4.35477e+07
4.34832e+07
4.34144e+07
4.33415e+07
4.32643e+07
4.31829e+07
4.30973e+07
4.30075e+07
4.29136e+07
4.28157e+07
4.27137e+07
4.26076e+07
4.24976e+07
4.23837e+07
4.22659e+07
4.21443e+07
4.20189e+07
4.18898e+07
4.1757e+07
4.16206e+07
4.14807e+07
4.13373e+07
4.11904e+07
4.10402e+07
4.08867e+07
4.07299e+07
4.05699e+07
4.04067e+07
4.02405e+07
4.00712e+07
3.98989e+07
3.97238e+07
3.95457e+07
3.93649e+07
3.91813e+07
3.8995e+07
3.88061e+07
3.86146e+07
3.84205e+07
3.8224e+07
3.80249e+07
3.78235e+07
3.76198e+07
3.74138e+07
3.72055e+07
3.6995e+07
3.67823e+07
3.65675e+07
3.63507e+07
3.61318e+07
3.59109e+07
3.56881e+07
3.54633e+07
3.52367e+07
3.50082e+07
3.4778e+07
3.4546e+07
3.43122e+07
3.40768e+07
3.38397e+07
3.3601e+07
3.33607e+07
3.31188e+07
3.28754e+07
3.26306e+07
3.23842e+07
3.21364e+07
3.18872e+07
3.16367e+07
3.13848e+07
3.11316e+07
3.08771e+07
3.06213e+07
3.03643e+07
3.01061e+07
2.98467e+07
2.95861e+07
2.93244e+07
2.90616e+07
2.87977e+07
2.85328e+07
2.82669e+07
2.79999e+07
2.7732e+07
2.74631e+07
2.71932e+07
2.69225e+07
2.66509e+07
2.63784e+07
2.61052e+07
2.58311e+07
2.55562e+07
2.52805e+07
2.50042e+07
2.47271e+07
2.44494e+07
2.41709e+07
2.38919e+07
2.36123e+07
2.33321e+07
2.30513e+07
2.277e+07
2.24882e+07
2.2206e+07
2.19233e+07
2.16402e+07
2.13568e+07
2.10729e+07
2.07888e+07
2.05044e+07
2.02197e+07
1.99348e+07
1.96496e+07
1.93644e+07
1.9079e+07
1.87935e+07
1.85079e+07
1.82223e+07
1.79367e+07
1.76512e+07
1.73658e+07
1.70805e+07
1.67953e+07
1.65103e+07
1.62256e+07
1.59412e+07
1.56571e+07
1.53733e+07
1.509e+07
1.48071e+07
1.45248e+07
1.42429e+07
1.39617e+07
1.36812e+07
1.34013e+07
1.31221e+07
1.28438e+07
1.25664e+07
1.22898e+07
1.20142e+07
1.17396e+07
1.14661e+07
1.11937e+07
1.09226e+07
1.06527e+07
1.03841e+07
1.0117e+07
9.85124e+06
9.58707e+06
9.3245e+06
9.06362e+06
8.8045e+06
8.54723e+06
8.2919e+06
8.03861e+06
7.78745e+06
7.53854e+06
7.29201e+06
7.048e+06
6.80667e+06
6.56824e+06
6.33294e+06
6.10109e+06
5.87305e+06
5.64912e+06
4.40827e+07
4.40788e+07
4.40712e+07
4.40597e+07
4.40443e+07
4.4025e+07
4.40016e+07
4.3974e+07
4.39424e+07
4.39065e+07
4.38665e+07
4.38222e+07
4.37736e+07
4.37207e+07
4.36636e+07
4.36021e+07
4.35364e+07
4.34664e+07
4.33921e+07
4.33135e+07
4.32308e+07
4.31438e+07
4.30526e+07
4.29574e+07
4.2858e+07
4.27546e+07
4.26471e+07
4.25357e+07
4.24204e+07
4.23013e+07
4.21783e+07
4.20516e+07
4.19212e+07
4.17871e+07
4.16495e+07
4.15084e+07
4.13638e+07
4.12158e+07
4.10645e+07
4.09098e+07
4.0752e+07
4.0591e+07
4.04268e+07
4.02596e+07
4.00894e+07
3.99163e+07
3.97403e+07
3.95615e+07
3.93799e+07
3.91955e+07
3.90085e+07
3.88189e+07
3.86267e+07
3.8432e+07
3.82349e+07
3.80353e+07
3.78333e+07
3.76291e+07
3.74225e+07
3.72137e+07
3.70028e+07
3.67897e+07
3.65745e+07
3.63572e+07
3.6138e+07
3.59167e+07
3.56936e+07
3.54685e+07
3.52416e+07
3.50128e+07
3.47823e+07
3.455e+07
3.4316e+07
3.40804e+07
3.38431e+07
3.36041e+07
3.33636e+07
3.31216e+07
3.2878e+07
3.2633e+07
3.23865e+07
3.21386e+07
3.18892e+07
3.16385e+07
3.13865e+07
3.11332e+07
3.08786e+07
3.06227e+07
3.03656e+07
3.01073e+07
2.98478e+07
2.95872e+07
2.93254e+07
2.90625e+07
2.87986e+07
2.85336e+07
2.82676e+07
2.80006e+07
2.77326e+07
2.74636e+07
2.71938e+07
2.6923e+07
2.66514e+07
2.63789e+07
2.61055e+07
2.58314e+07
2.55565e+07
2.52808e+07
2.50045e+07
2.47274e+07
2.44496e+07
2.41712e+07
2.38921e+07
2.36125e+07
2.33322e+07
2.30515e+07
2.27702e+07
2.24884e+07
2.22061e+07
2.19234e+07
2.16403e+07
2.13569e+07
2.1073e+07
2.07889e+07
2.05044e+07
2.02197e+07
1.99348e+07
1.96497e+07
1.93644e+07
1.9079e+07
1.87935e+07
1.85079e+07
1.82224e+07
1.79368e+07
1.76512e+07
1.73658e+07
1.70805e+07
1.67953e+07
1.65104e+07
1.62256e+07
1.59412e+07
1.56571e+07
1.53733e+07
1.509e+07
1.48071e+07
1.45248e+07
1.42429e+07
1.39617e+07
1.36812e+07
1.34013e+07
1.31222e+07
1.28438e+07
1.25664e+07
1.22898e+07
1.20142e+07
1.17396e+07
1.14661e+07
1.11937e+07
1.09226e+07
1.06527e+07
1.03841e+07
1.01169e+07
9.85122e+06
9.58703e+06
9.32446e+06
9.06357e+06
8.80443e+06
8.54715e+06
8.2918e+06
8.03847e+06
7.78728e+06
7.53832e+06
7.29172e+06
7.04762e+06
6.80617e+06
6.56756e+06
6.33199e+06
6.09971e+06
5.87093e+06
5.64572e+06
4.41648e+07
4.41608e+07
4.41529e+07
4.4141e+07
4.41251e+07
4.41051e+07
4.40809e+07
4.40525e+07
4.40199e+07
4.3983e+07
4.39418e+07
4.38963e+07
4.38464e+07
4.37921e+07
4.37335e+07
4.36705e+07
4.36032e+07
4.35315e+07
4.34555e+07
4.33753e+07
4.32908e+07
4.3202e+07
4.31091e+07
4.3012e+07
4.29109e+07
4.28057e+07
4.26965e+07
4.25833e+07
4.24663e+07
4.23454e+07
4.22207e+07
4.20923e+07
4.19603e+07
4.18247e+07
4.16855e+07
4.15428e+07
4.13968e+07
4.12473e+07
4.10946e+07
4.09386e+07
4.07795e+07
4.06172e+07
4.04518e+07
4.02835e+07
4.01121e+07
3.99379e+07
3.97609e+07
3.9581e+07
3.93984e+07
3.92132e+07
3.90253e+07
3.88348e+07
3.86418e+07
3.84463e+07
3.82484e+07
3.80481e+07
3.78455e+07
3.76405e+07
3.74334e+07
3.7224e+07
3.70125e+07
3.67989e+07
3.65831e+07
3.63654e+07
3.61457e+07
3.5924e+07
3.57004e+07
3.54749e+07
3.52476e+07
3.50185e+07
3.47877e+07
3.45551e+07
3.43208e+07
3.40848e+07
3.38472e+07
3.36081e+07
3.33673e+07
3.3125e+07
3.28813e+07
3.2636e+07
3.23893e+07
3.21412e+07
3.18917e+07
3.16409e+07
3.13887e+07
3.11352e+07
3.08804e+07
3.06244e+07
3.03672e+07
3.01088e+07
2.98492e+07
2.95885e+07
2.93266e+07
2.90637e+07
2.87996e+07
2.85346e+07
2.82685e+07
2.80014e+07
2.77334e+07
2.74644e+07
2.71945e+07
2.69236e+07
2.66519e+07
2.63794e+07
2.6106e+07
2.58319e+07
2.55569e+07
2.52812e+07
2.50048e+07
2.47277e+07
2.44499e+07
2.41714e+07
2.38924e+07
2.36127e+07
2.33324e+07
2.30516e+07
2.27703e+07
2.24885e+07
2.22063e+07
2.19236e+07
2.16405e+07
2.1357e+07
2.10731e+07
2.0789e+07
2.05045e+07
2.02198e+07
1.99349e+07
1.96498e+07
1.93645e+07
1.90791e+07
1.87936e+07
1.8508e+07
1.82224e+07
1.79368e+07
1.76513e+07
1.73658e+07
1.70805e+07
1.67953e+07
1.65104e+07
1.62256e+07
1.59412e+07
1.56571e+07
1.53734e+07
1.509e+07
1.48071e+07
1.45248e+07
1.4243e+07
1.39617e+07
1.36812e+07
1.34013e+07
1.31222e+07
1.28438e+07
1.25664e+07
1.22898e+07
1.20142e+07
1.17396e+07
1.14661e+07
1.11937e+07
1.09226e+07
1.06527e+07
1.03841e+07
1.01169e+07
9.85118e+06
9.58699e+06
9.32441e+06
9.0635e+06
8.80435e+06
8.54705e+06
8.29167e+06
8.03831e+06
7.78707e+06
7.53805e+06
7.29138e+06
7.04717e+06
6.80558e+06
6.56675e+06
6.33088e+06
6.09813e+06
5.86862e+06
5.64228e+06
4.42645e+07
4.42603e+07
4.4252e+07
4.42396e+07
4.4223e+07
4.42022e+07
4.41771e+07
4.41477e+07
4.41139e+07
4.40757e+07
4.4033e+07
4.39859e+07
4.39344e+07
4.38784e+07
4.38179e+07
4.3753e+07
4.36837e+07
4.361e+07
4.3532e+07
4.34496e+07
4.3363e+07
4.3272e+07
4.31769e+07
4.30777e+07
4.29743e+07
4.28669e+07
4.27556e+07
4.26403e+07
4.25211e+07
4.23982e+07
4.22714e+07
4.21411e+07
4.20071e+07
4.18695e+07
4.17284e+07
4.1584e+07
4.14361e+07
4.1285e+07
4.11306e+07
4.0973e+07
4.08122e+07
4.06484e+07
4.04816e+07
4.03119e+07
4.01392e+07
3.99637e+07
3.97853e+07
3.96043e+07
3.94205e+07
3.92342e+07
3.90452e+07
3.88537e+07
3.86597e+07
3.84633e+07
3.82645e+07
3.80634e+07
3.78599e+07
3.76542e+07
3.74463e+07
3.72362e+07
3.7024e+07
3.68097e+07
3.65934e+07
3.63751e+07
3.61548e+07
3.59326e+07
3.57085e+07
3.54826e+07
3.52548e+07
3.50253e+07
3.4794e+07
3.45611e+07
3.43264e+07
3.40901e+07
3.38522e+07
3.36127e+07
3.33717e+07
3.31291e+07
3.28851e+07
3.26396e+07
3.23927e+07
3.21443e+07
3.18946e+07
3.16436e+07
3.13912e+07
3.11376e+07
3.08827e+07
3.06265e+07
3.03691e+07
3.01106e+07
2.98509e+07
2.959e+07
2.93281e+07
2.9065e+07
2.88009e+07
2.85357e+07
2.82696e+07
2.80024e+07
2.77343e+07
2.74652e+07
2.71952e+07
2.69244e+07
2.66526e+07
2.638e+07
2.61066e+07
2.58324e+07
2.55574e+07
2.52817e+07
2.50052e+07
2.47281e+07
2.44502e+07
2.41718e+07
2.38927e+07
2.3613e+07
2.33327e+07
2.30519e+07
2.27705e+07
2.24887e+07
2.22064e+07
2.19237e+07
2.16406e+07
2.13571e+07
2.10733e+07
2.07891e+07
2.05046e+07
2.02199e+07
1.9935e+07
1.96498e+07
1.93646e+07
1.90791e+07
1.87936e+07
1.8508e+07
1.82224e+07
1.79369e+07
1.76513e+07
1.73659e+07
1.70805e+07
1.67954e+07
1.65104e+07
1.62257e+07
1.59412e+07
1.56571e+07
1.53734e+07
1.509e+07
1.48072e+07
1.45248e+07
1.4243e+07
1.39617e+07
1.36812e+07
1.34013e+07
1.31222e+07
1.28438e+07
1.25664e+07
1.22898e+07
1.20142e+07
1.17396e+07
1.14661e+07
1.11937e+07
1.09226e+07
1.06526e+07
1.03841e+07
1.01169e+07
9.85115e+06
9.58695e+06
9.32435e+06
9.06342e+06
8.80426e+06
8.54693e+06
8.29152e+06
8.03812e+06
7.78682e+06
7.53774e+06
7.29097e+06
7.04665e+06
6.80489e+06
6.56584e+06
6.32964e+06
6.09641e+06
5.86621e+06
5.63889e+06
4.43825e+07
4.4378e+07
4.43692e+07
4.43562e+07
4.43388e+07
4.4317e+07
4.42908e+07
4.426e+07
4.42248e+07
4.41849e+07
4.41405e+07
4.40915e+07
4.40379e+07
4.39798e+07
4.39171e+07
4.38499e+07
4.37782e+07
4.37021e+07
4.36216e+07
4.35366e+07
4.34474e+07
4.33539e+07
4.32562e+07
4.31543e+07
4.30484e+07
4.29384e+07
4.28244e+07
4.27066e+07
4.25849e+07
4.24595e+07
4.23304e+07
4.21976e+07
4.20613e+07
4.19215e+07
4.17782e+07
4.16316e+07
4.14817e+07
4.13285e+07
4.11722e+07
4.10127e+07
4.08501e+07
4.06846e+07
4.05161e+07
4.03447e+07
4.01704e+07
3.99934e+07
3.98136e+07
3.96312e+07
3.94461e+07
3.92584e+07
3.90682e+07
3.88756e+07
3.86805e+07
3.8483e+07
3.82831e+07
3.8081e+07
3.78766e+07
3.767e+07
3.74612e+07
3.72503e+07
3.70374e+07
3.68223e+07
3.66053e+07
3.63863e+07
3.61654e+07
3.59426e+07
3.57179e+07
3.54914e+07
3.52632e+07
3.50331e+07
3.48014e+07
3.4568e+07
3.43329e+07
3.40962e+07
3.38579e+07
3.36181e+07
3.33767e+07
3.31339e+07
3.28895e+07
3.26437e+07
3.23965e+07
3.2148e+07
3.1898e+07
3.16468e+07
3.13942e+07
3.11403e+07
3.08852e+07
3.06289e+07
3.03714e+07
3.01127e+07
2.98528e+07
2.95918e+07
2.93297e+07
2.90666e+07
2.88023e+07
2.85371e+07
2.82708e+07
2.80036e+07
2.77354e+07
2.74662e+07
2.71962e+07
2.69252e+07
2.66534e+07
2.63808e+07
2.61073e+07
2.5833e+07
2.5558e+07
2.52822e+07
2.50057e+07
2.47285e+07
2.44507e+07
2.41721e+07
2.3893e+07
2.36133e+07
2.3333e+07
2.30521e+07
2.27708e+07
2.2489e+07
2.22067e+07
2.19239e+07
2.16408e+07
2.13573e+07
2.10734e+07
2.07892e+07
2.05047e+07
2.022e+07
1.99351e+07
1.96499e+07
1.93646e+07
1.90792e+07
1.87937e+07
1.85081e+07
1.82225e+07
1.79369e+07
1.76514e+07
1.73659e+07
1.70806e+07
1.67954e+07
1.65104e+07
1.62257e+07
1.59413e+07
1.56571e+07
1.53734e+07
1.50901e+07
1.48072e+07
1.45248e+07
1.4243e+07
1.39618e+07
1.36812e+07
1.34013e+07
1.31222e+07
1.28438e+07
1.25664e+07
1.22898e+07
1.20142e+07
1.17396e+07
1.14661e+07
1.11937e+07
1.09225e+07
1.06526e+07
1.0384e+07
1.01168e+07
9.8511e+06
9.58689e+06
9.32428e+06
9.06334e+06
8.80415e+06
8.54679e+06
8.29135e+06
8.0379e+06
7.78655e+06
7.53739e+06
7.29053e+06
7.04607e+06
6.80414e+06
6.56485e+06
6.32831e+06
6.09461e+06
5.86376e+06
5.63559e+06
4.45196e+07
4.45147e+07
4.45054e+07
4.44916e+07
4.44733e+07
4.44503e+07
4.44226e+07
4.43903e+07
4.43532e+07
4.43114e+07
4.42648e+07
4.42135e+07
4.41575e+07
4.40968e+07
4.40315e+07
4.39615e+07
4.3887e+07
4.38079e+07
4.37244e+07
4.36365e+07
4.35442e+07
4.34476e+07
4.33468e+07
4.32419e+07
4.31329e+07
4.30199e+07
4.2903e+07
4.27822e+07
4.26576e+07
4.25293e+07
4.23974e+07
4.22619e+07
4.21229e+07
4.19805e+07
4.18347e+07
4.16857e+07
4.15334e+07
4.13779e+07
4.12193e+07
4.10577e+07
4.08931e+07
4.07255e+07
4.05551e+07
4.03818e+07
4.02058e+07
4.0027e+07
3.98456e+07
3.96616e+07
3.9475e+07
3.92859e+07
3.90943e+07
3.89003e+07
3.87039e+07
3.85051e+07
3.83041e+07
3.81009e+07
3.78954e+07
3.76878e+07
3.74781e+07
3.72663e+07
3.70524e+07
3.68366e+07
3.66187e+07
3.6399e+07
3.61773e+07
3.59538e+07
3.57285e+07
3.55014e+07
3.52726e+07
3.5042e+07
3.48097e+07
3.45758e+07
3.43403e+07
3.41031e+07
3.38644e+07
3.36242e+07
3.33824e+07
3.31392e+07
3.28945e+07
3.26484e+07
3.24009e+07
3.21521e+07
3.19019e+07
3.16503e+07
3.13975e+07
3.11435e+07
3.08882e+07
3.06316e+07
3.03739e+07
3.0115e+07
2.9855e+07
2.95939e+07
2.93316e+07
2.90683e+07
2.8804e+07
2.85386e+07
2.82722e+07
2.80049e+07
2.77366e+07
2.74673e+07
2.71972e+07
2.69262e+07
2.66543e+07
2.63816e+07
2.6108e+07
2.58337e+07
2.55586e+07
2.52828e+07
2.50063e+07
2.4729e+07
2.44511e+07
2.41726e+07
2.38934e+07
2.36136e+07
2.33333e+07
2.30524e+07
2.27711e+07
2.24892e+07
2.22069e+07
2.19241e+07
2.1641e+07
2.13574e+07
2.10736e+07
2.07894e+07
2.05049e+07
2.02201e+07
1.99352e+07
1.965e+07
1.93647e+07
1.90793e+07
1.87938e+07
1.85082e+07
1.82226e+07
1.7937e+07
1.76514e+07
1.73659e+07
1.70806e+07
1.67954e+07
1.65105e+07
1.62257e+07
1.59413e+07
1.56572e+07
1.53734e+07
1.50901e+07
1.48072e+07
1.45248e+07
1.4243e+07
1.39618e+07
1.36812e+07
1.34013e+07
1.31222e+07
1.28438e+07
1.25664e+07
1.22898e+07
1.20142e+07
1.17396e+07
1.14661e+07
1.11937e+07
1.09225e+07
1.06526e+07
1.0384e+07
1.01168e+07
9.85106e+06
9.58683e+06
9.3242e+06
9.06325e+06
8.80403e+06
8.54664e+06
8.29116e+06
8.03767e+06
7.78625e+06
7.53701e+06
7.29004e+06
7.04545e+06
6.80333e+06
6.56379e+06
6.32692e+06
6.09277e+06
5.86132e+06
5.63241e+06
4.46769e+07
4.46716e+07
4.46616e+07
4.46469e+07
4.46273e+07
4.46029e+07
4.45735e+07
4.45392e+07
4.44999e+07
4.44557e+07
4.44066e+07
4.43525e+07
4.42936e+07
4.42299e+07
4.41613e+07
4.40881e+07
4.40102e+07
4.39277e+07
4.38407e+07
4.37492e+07
4.36534e+07
4.35533e+07
4.3449e+07
4.33405e+07
4.3228e+07
4.31115e+07
4.29911e+07
4.28669e+07
4.2739e+07
4.26074e+07
4.24723e+07
4.23337e+07
4.21917e+07
4.20464e+07
4.18977e+07
4.17459e+07
4.15909e+07
4.14329e+07
4.12718e+07
4.11078e+07
4.09408e+07
4.0771e+07
4.05984e+07
4.04231e+07
4.02451e+07
4.00644e+07
3.98811e+07
3.96953e+07
3.9507e+07
3.93163e+07
3.91232e+07
3.89277e+07
3.87299e+07
3.85298e+07
3.83275e+07
3.8123e+07
3.79163e+07
3.77076e+07
3.74968e+07
3.7284e+07
3.70691e+07
3.68523e+07
3.66336e+07
3.6413e+07
3.61906e+07
3.59663e+07
3.57403e+07
3.55125e+07
3.5283e+07
3.50518e+07
3.4819e+07
3.45845e+07
3.43484e+07
3.41108e+07
3.38716e+07
3.36309e+07
3.33887e+07
3.31451e+07
3.29001e+07
3.26536e+07
3.24058e+07
3.21566e+07
3.19061e+07
3.16543e+07
3.14013e+07
3.11469e+07
3.08914e+07
3.06346e+07
3.03767e+07
3.01177e+07
2.98575e+07
2.95961e+07
2.93337e+07
2.90703e+07
2.88058e+07
2.85403e+07
2.82738e+07
2.80063e+07
2.77379e+07
2.74686e+07
2.71984e+07
2.69272e+07
2.66553e+07
2.63825e+07
2.61089e+07
2.58345e+07
2.55593e+07
2.52835e+07
2.50069e+07
2.47296e+07
2.44516e+07
2.4173e+07
2.38938e+07
2.3614e+07
2.33337e+07
2.30528e+07
2.27714e+07
2.24895e+07
2.22071e+07
2.19244e+07
2.16412e+07
2.13576e+07
2.10737e+07
2.07895e+07
2.0505e+07
2.02203e+07
1.99353e+07
1.96501e+07
1.93648e+07
1.90794e+07
1.87938e+07
1.85082e+07
1.82226e+07
1.7937e+07
1.76515e+07
1.7366e+07
1.70807e+07
1.67955e+07
1.65105e+07
1.62258e+07
1.59413e+07
1.56572e+07
1.53734e+07
1.50901e+07
1.48072e+07
1.45248e+07
1.4243e+07
1.39618e+07
1.36812e+07
1.34013e+07
1.31222e+07
1.28438e+07
1.25664e+07
1.22898e+07
1.20142e+07
1.17396e+07
1.14661e+07
1.11937e+07
1.09225e+07
1.06526e+07
1.0384e+07
1.01168e+07
9.851e+06
9.58677e+06
9.32412e+06
9.06314e+06
8.80391e+06
8.54648e+06
8.29096e+06
8.03741e+06
7.78593e+06
7.53661e+06
7.28953e+06
7.04479e+06
6.80248e+06
6.56269e+06
6.32549e+06
6.09092e+06
5.85892e+06
5.62935e+06
4.48556e+07
4.48499e+07
4.48391e+07
4.48232e+07
4.48021e+07
4.47759e+07
4.47444e+07
4.47077e+07
4.46658e+07
4.46187e+07
4.45665e+07
4.45092e+07
4.44468e+07
4.43794e+07
4.43071e+07
4.423e+07
4.41482e+07
4.40617e+07
4.39707e+07
4.38751e+07
4.37752e+07
4.3671e+07
4.35626e+07
4.345e+07
4.33335e+07
4.3213e+07
4.30887e+07
4.29606e+07
4.28289e+07
4.26937e+07
4.2555e+07
4.24129e+07
4.22675e+07
4.21189e+07
4.1967e+07
4.18121e+07
4.16542e+07
4.14933e+07
4.13294e+07
4.11627e+07
4.09932e+07
4.08209e+07
4.0646e+07
4.04683e+07
4.02881e+07
4.01053e+07
3.99201e+07
3.97323e+07
3.95422e+07
3.93497e+07
3.91548e+07
3.89577e+07
3.87583e+07
3.85567e+07
3.8353e+07
3.81472e+07
3.79392e+07
3.77293e+07
3.75173e+07
3.73033e+07
3.70874e+07
3.68696e+07
3.66499e+07
3.64284e+07
3.62051e+07
3.598e+07
3.57532e+07
3.55246e+07
3.52944e+07
3.50626e+07
3.48291e+07
3.4594e+07
3.43573e+07
3.41192e+07
3.38795e+07
3.36383e+07
3.33957e+07
3.31516e+07
3.29062e+07
3.26593e+07
3.24111e+07
3.21616e+07
3.19108e+07
3.16587e+07
3.14053e+07
3.11507e+07
3.08949e+07
3.0638e+07
3.03798e+07
3.01205e+07
2.98601e+07
2.95986e+07
2.93361e+07
2.90724e+07
2.88078e+07
2.85421e+07
2.82755e+07
2.80079e+07
2.77394e+07
2.747e+07
2.71996e+07
2.69284e+07
2.66564e+07
2.63835e+07
2.61098e+07
2.58353e+07
2.55601e+07
2.52842e+07
2.50075e+07