/*--------------------------------*- C++ -*----------------------------------*\
| =========                 |                                                 |
| \\      /  F ield         | OpenFOAM: The Open Source CFD Toolbox           |
|  \\    /   O peration     | Version:  2.1.x                                 |
|   \\  /    A nd           | Web:      www.OpenFOAM.org                      |
|    \\/     M anipulation  |                                                 |
\*---------------------------------------------------------------------------*/
FoamFile
{
    version     2.0;
    format      ascii;
    class       volVectorField;
    location    "0.006";
    object      U;
}
// * * * * * * * * * * * * * * * * * * * * * * * * * * * * * * * * * * * * * //

dimensions      [0 1 -1 0 0 0 0];

internalField   nonuniform List<vector> 
12225
(
(7.19427 0.408784 0)
(4.49059 0.185964 0)
(3.07125 0.0282977 0)
(2.40619 -0.0105869 0)
(2.1062 -0.0109044 0)
(1.96623 -0.00754671 0)
(1.9043 -0.00714783 0)
(1.87867 -0.00495906 0)
(1.83362 0.00140007 0)
(1.79939 0.000368199 0)
(1.76846 -0.00135514 0)
(1.79541 -0.00607022 0)
(1.78036 -0.00245731 0)
(1.82563 -0.00313763 0)
(1.79362 -0.00218707 0)
(1.86624 -0.00241743 0)
(1.77164 0.0146376 0)
(2.0118 -0.0607778 0)
(9.87596 0.9508 0)
(9.05341 0.851117 0)
(7.87962 0.448351 0)
(6.88096 0.224029 0)
(6.18949 0.115424 0)
(5.7782 0.0578894 0)
(5.53433 0.0224369 0)
(5.37396 0.0169883 0)
(5.20773 0.0266196 0)
(5.1206 0.0170212 0)
(5.00314 0.00287034 0)
(5.0456 -0.00556251 0)
(4.94565 -0.00350765 0)
(5.04533 -0.00631182 0)
(4.94388 -0.0106131 0)
(5.06029 -0.0112776 0)
(4.96013 -0.00385068 0)
(5.2743 -0.0968102 0)
(10.167 0.758256 0)
(10.652 0.919582 0)
(10.4687 0.590218 0)
(9.95697 0.388873 0)
(9.3942 0.270633 0)
(8.96741 0.17895 0)
(8.66772 0.10797 0)
(8.44092 0.0933465 0)
(8.20829 0.0961104 0)
(8.07855 0.0661012 0)
(7.89571 0.0261439 0)
(7.88747 0.00278513 0)
(7.76951 0.00832522 0)
(7.79967 -0.00897987 0)
(7.76757 0.000814164 0)
(7.7284 -0.0114384 0)
(7.77467 -0.0331794 0)
(7.93711 -0.147776 0)
(10.4062 0.650251 0)
(10.9615 0.898687 0)
(11.198 0.646702 0)
(11.1986 0.47935 0)
(11.0099 0.385655 0)
(10.7726 0.279089 0)
(10.6026 0.182386 0)
(10.4515 0.160577 0)
(10.3338 0.166663 0)
(10.2635 0.129262 0)
(10.1611 0.0799854 0)
(10.1305 0.0370311 0)
(10.0599 0.0395023 0)
(10.0329 0.00199972 0)
(10.0517 -0.00215292 0)
(9.90048 -0.00209525 0)
(9.9728 -0.0728453 0)
(10.1696 -0.163292 0)
(9.69552 0.41961 0)
(10.2785 0.728042 0)
(10.749 0.525924 0)
(11.0952 0.368663 0)
(11.2561 0.337766 0)
(11.24 0.273924 0)
(11.1665 0.192456 0)
(11.0458 0.181376 0)
(11.0321 0.183471 0)
(11.0722 0.136479 0)
(11.1322 0.0822104 0)
(11.2013 0.0430767 0)
(11.2626 0.0483862 0)
(11.2735 0.0110397 0)
(11.1575 0.0409808 0)
(10.9541 0.0530286 0)
(11.0558 -0.157392 0)
(11.2139 -0.251699 0)
(10.2182 0.451281 0)
(10.5232 0.707116 0)
(10.6986 0.542228 0)
(10.807 0.36642 0)
(10.9283 0.339272 0)
(11.027 0.297199 0)
(11.0052 0.231681 0)
(10.9353 0.202848 0)
(10.9481 0.159108 0)
(11.0403 0.0690907 0)
(11.1676 0.00224852 0)
(11.2729 -0.0364655 0)
(11.3329 -0.0133441 0)
(11.2785 0.0620233 0)
(11.1907 0.135924 0)
(11.2425 0.0148551 0)
(11.2592 -0.208153 0)
(11.1479 -0.138225 0)
(9.71406 0.187982 0)
(10.1819 0.530944 0)
(10.4696 0.472498 0)
(10.6182 0.291836 0)
(10.7233 0.209986 0)
(10.8205 0.189007 0)
(10.8158 0.184372 0)
(10.8129 0.186523 0)
(10.8696 0.134531 0)
(10.9548 0.0340125 0)
(10.9958 -0.0224569 0)
(11.0301 -0.0268452 0)
(11.0273 0.0422228 0)
(11.0346 0.0926903 0)
(11.1056 0.0569382 0)
(11.1347 0.00929728 0)
(11.0722 -0.101048 0)
(11.1974 -0.0983751 0)
(9.88844 0.159684 0)
(10.1593 0.487175 0)
(10.3741 0.450463 0)
(10.4885 0.32631 0)
(10.4831 0.265365 0)
(10.4756 0.248832 0)
(10.4596 0.214425 0)
(10.5281 0.179729 0)
(10.6672 0.1057 0)
(10.7918 0.0102117 0)
(10.8539 -0.0418288 0)
(10.8891 -0.0473807 0)
(10.9148 -0.0276595 0)
(10.9832 0.00856649 0)
(11.0347 0.0634703 0)
(11.0267 0.0172942 0)
(11.0747 -0.242322 0)
(11.2828 -0.220528 0)
(9.81822 0.130194 0)
(10.08 0.352001 0)
(10.319 0.387265 0)
(10.4396 0.334606 0)
(10.4027 0.263967 0)
(10.3668 0.20112 0)
(10.379 0.137466 0)
(10.4757 0.0795135 0)
(10.6228 0.0103963 0)
(10.7475 -0.0558117 0)
(10.8095 -0.0675876 0)
(10.8425 -0.0490552 0)
(10.867 -0.00927088 0)
(10.8645 0.0325247 0)
(10.8517 0.0486168 0)
(10.924 -0.0229376 0)
(10.9948 -0.258902 0)
(10.9515 -0.22349 0)
(9.83679 0.178629 0)
(9.93519 0.304981 0)
(10.1012 0.316369 0)
(10.2974 0.306059 0)
(10.4293 0.296178 0)
(10.5092 0.245968 0)
(10.5637 0.154976 0)
(10.5903 0.0641551 0)
(10.6116 -0.0157474 0)
(10.5985 -0.0869733 0)
(10.5752 -0.103014 0)
(10.5622 -0.0794844 0)
(10.5844 -0.0476597 0)
(10.6282 0.00243499 0)
(10.6902 0.0136042 0)
(10.7824 -0.093592 0)
(10.812 -0.261238 0)
(10.7001 -0.119847 0)
(10.2178 0.145676 0)
(10.372 0.227151 0)
(10.4074 0.258522 0)
(10.4226 0.254234 0)
(10.4552 0.225753 0)
(10.5264 0.170399 0)
(10.5954 0.109071 0)
(10.6357 0.0563819 0)
(10.6296 0.00420042 0)
(10.5821 -0.0328993 0)
(10.4967 -0.0471092 0)
(10.4314 -0.0411897 0)
(10.4161 -0.0396823 0)
(10.4381 -0.0319426 0)
(10.4979 -0.0510916 0)
(10.5888 -0.115699 0)
(10.5841 -0.197754 0)
(10.5284 -0.218327 0)
(9.95205 0.104489 0)
(9.9459 0.162133 0)
(9.98936 0.274735 0)
(10.0969 0.294491 0)
(10.2373 0.24857 0)
(10.3943 0.1758 0)
(10.5059 0.0872301 0)
(10.5597 0.0305865 0)
(10.5138 -0.00387365 0)
(10.4441 -0.0322055 0)
(10.3567 -0.0413897 0)
(10.3195 -0.0412834 0)
(10.3309 -0.054627 0)
(10.3801 -0.0818329 0)
(10.4417 -0.118792 0)
(10.5137 -0.143507 0)
(10.5253 -0.220643 0)
(10.6064 -0.407574 0)
(10.2127 0.234748 0)
(10.1573 0.196096 0)
(10.1422 0.184012 0)
(10.2003 0.116887 0)
(10.2912 0.0367702 0)
(10.3622 0.0143001 0)
(10.4039 0.0389303 0)
(10.4144 0.0797346 0)
(10.388 0.0969227 0)
(10.358 0.077426 0)
(10.3347 0.0328849 0)
(10.3224 -0.0183957 0)
(10.3381 -0.0806591 0)
(10.3769 -0.138508 0)
(10.4079 -0.165264 0)
(10.4496 -0.182749 0)
(10.4769 -0.336236 0)
(10.4607 -0.538096 0)
(10.1086 0.0349256 0)
(10.181 0.152517 0)
(10.227 0.23816 0)
(10.215 0.227323 0)
(10.1614 0.187649 0)
(10.1052 0.137241 0)
(10.1009 0.0887287 0)
(10.1644 0.0453577 0)
(10.2507 0.00563767 0)
(10.3416 -0.0231066 0)
(10.4146 -0.054765 0)
(10.4558 -0.0785119 0)
(10.4854 -0.11555 0)
(10.4972 -0.179741 0)
(10.479 -0.233186 0)
(10.4761 -0.224943 0)
(10.4714 -0.193795 0)
(10.3623 -0.437476 0)
(9.88699 0.0108199 0)
(9.89892 0.126281 0)
(9.91888 0.164522 0)
(10.0415 0.139743 0)
(10.1958 0.0895166 0)
(10.2896 0.0306848 0)
(10.3341 -0.0130374 0)
(10.3647 -0.0384377 0)
(10.3727 -0.0611305 0)
(10.3938 -0.0752746 0)
(10.4175 -0.0912832 0)
(10.4398 -0.105432 0)
(10.4509 -0.114517 0)
(10.4575 -0.128483 0)
(10.4396 -0.147001 0)
(10.4459 -0.158618 0)
(10.5086 -0.176098 0)
(10.4561 -0.429303 0)
(9.68629 0.146363 0)
(9.75763 0.0543361 0)
(9.88051 0.0123841 0)
(10.0403 0.00611078 0)
(10.1475 0.00853897 0)
(10.1798 0.0216549 0)
(10.1881 0.0340554 0)
(10.2041 0.0318813 0)
(10.2223 -0.00465236 0)
(10.2548 -0.0543039 0)
(10.2867 -0.1095 0)
(10.3136 -0.157303 0)
(10.3239 -0.180388 0)
(10.3382 -0.192848 0)
(10.3515 -0.262352 0)
(10.3479 -0.382507 0)
(10.3191 -0.21896 0)
(10.3627 0.282848 0)
(9.67819 -0.0547936 0)
(9.70438 -0.224243 0)
(9.84942 -0.202367 0)
(10.056 -0.13144 0)
(10.2118 -0.0783857 0)
(10.2749 -0.0572584 0)
(10.2832 -0.0703221 0)
(10.2834 -0.0960267 0)
(10.2805 -0.129251 0)
(10.2891 -0.155614 0)
(10.307 -0.167833 0)
(10.3236 -0.166517 0)
(10.331 -0.159785 0)
(10.3338 -0.172713 0)
(10.3319 -0.15574 0)
(10.3018 -0.069336 0)
(10.2658 -0.231651 0)
(10.3094 -0.723204 0)
(10.194 -0.0134084 0)
(10.0667 -0.269119 0)
(9.98849 -0.386725 0)
(9.93297 -0.347829 0)
(9.95706 -0.225215 0)
(10.0208 -0.0723483 0)
(10.0859 0.0382287 0)
(10.1311 0.0687533 0)
(10.1279 0.0275136 0)
(10.1039 -0.0553919 0)
(10.0911 -0.141275 0)
(10.0976 -0.208081 0)
(10.1202 -0.238444 0)
(10.1408 -0.232676 0)
(10.1667 -0.226445 0)
(10.2179 -0.277967 0)
(10.2943 -0.24518 0)
(10.2511 0.0197138 0)
(9.94021 -0.162303 0)
(9.89065 -0.0342484 0)
(9.84192 -0.106946 0)
(9.74556 -0.211454 0)
(9.74044 -0.264732 0)
(9.84333 -0.248433 0)
(9.99327 -0.190484 0)
(10.1278 -0.135693 0)
(10.2187 -0.101651 0)
(10.2608 -0.103315 0)
(10.2784 -0.141119 0)
(10.2849 -0.201067 0)
(10.2841 -0.260057 0)
(10.2734 -0.307902 0)
(10.2769 -0.330167 0)
(10.2882 -0.306305 0)
(10.2936 -0.295149 0)
(10.3364 -0.385468 0)
(9.96138 -0.209219 0)
(10.0353 -0.094192 0)
(10.1363 -0.158568 0)
(10.1433 -0.261171 0)
(10.0999 -0.312535 0)
(10.0473 -0.319002 0)
(10.0404 -0.279204 0)
(10.0864 -0.216519 0)
(10.1547 -0.159171 0)
(10.2243 -0.131497 0)
(10.2857 -0.144416 0)
(10.3312 -0.188248 0)
(10.3519 -0.243222 0)
(10.3399 -0.285438 0)
(10.3038 -0.307596 0)
(10.2734 -0.320113 0)
(10.274 -0.317401 0)
(10.2682 -0.272793 0)
(10.1264 -0.0734254 0)
(10.1212 -0.193881 0)
(10.1235 -0.229438 0)
(10.1764 -0.219345 0)
(10.2174 -0.191274 0)
(10.2245 -0.198752 0)
(10.2332 -0.235298 0)
(10.259 -0.271306 0)
(10.2867 -0.289921 0)
(10.3142 -0.29096 0)
(10.3373 -0.282768 0)
(10.3586 -0.273474 0)
(10.3746 -0.269229 0)
(10.3725 -0.266115 0)
(10.3593 -0.262764 0)
(10.3434 -0.257466 0)
(10.3293 -0.259178 0)
(10.3199 -0.280618 0)
(10.1452 -0.0462175 0)
(10.1482 -0.0671748 0)
(10.2137 -0.212839 0)
(10.3659 -0.328198 0)
(10.494 -0.352302 0)
(10.5396 -0.317459 0)
(10.5418 -0.259567 0)
(10.5246 -0.211939 0)
(10.489 -0.190337 0)
(10.4431 -0.194504 0)
(10.401 -0.215861 0)
(10.3673 -0.246489 0)
(10.3518 -0.277444 0)
(10.3384 -0.297726 0)
(10.3276 -0.300358 0)
(10.3156 -0.290692 0)
(10.3157 -0.27497 0)
(10.3208 -0.257204 0)
(9.70609 -0.0494535 0)
(9.99309 -0.23387 0)
(10.2052 -0.426467 0)
(10.3483 -0.421258 0)
(10.4183 -0.33335 0)
(10.4498 -0.256312 0)
(10.4888 -0.211766 0)
(10.5373 -0.205509 0)
(10.5857 -0.214911 0)
(10.6229 -0.226789 0)
(10.644 -0.233907 0)
(10.6481 -0.236623 0)
(10.648 -0.239698 0)
(10.6443 -0.242807 0)
(10.6405 -0.243131 0)
(10.6387 -0.245454 0)
(10.6452 -0.250609 0)
(10.6501 -0.267894 0)
(9.92074 -0.13074 0)
(10.1992 -0.389832 0)
(10.3425 -0.491842 0)
(10.4032 -0.455614 0)
(10.4596 -0.387636 0)
(10.5492 -0.321815 0)
(10.6537 -0.27465 0)
(10.7266 -0.255032 0)
(10.7461 -0.248553 0)
(10.7201 -0.249107 0)
(10.6666 -0.259047 0)
(10.6121 -0.271574 0)
(10.5783 -0.286865 0)
(10.5654 -0.302517 0)
(10.5755 -0.30612 0)
(10.592 -0.299741 0)
(10.6139 -0.28412 0)
(10.6291 -0.266825 0)
(9.85526 -0.161562 0)
(10.0984 -0.528776 0)
(10.3497 -0.558254 0)
(10.5616 -0.470029 0)
(10.7031 -0.401437 0)
(10.7961 -0.370902 0)
(10.8588 -0.342969 0)
(10.9044 -0.298608 0)
(10.9364 -0.241997 0)
(10.9558 -0.196325 0)
(10.9627 -0.17501 0)
(10.9488 -0.179821 0)
(10.9242 -0.204248 0)
(10.8872 -0.236559 0)
(10.8464 -0.266303 0)
(10.8045 -0.286516 0)
(10.7674 -0.294665 0)
(10.7391 -0.294455 0)
(10.0595 -0.359501 0)
(10.3115 -0.702484 0)
(10.5608 -0.732366 0)
(10.7198 -0.600899 0)
(10.7856 -0.45834 0)
(10.7953 -0.379907 0)
(10.7798 -0.339551 0)
(10.7626 -0.31244 0)
(10.7617 -0.285968 0)
(10.782 -0.262803 0)
(10.8148 -0.246497 0)
(10.8478 -0.238545 0)
(10.8726 -0.237527 0)
(10.8839 -0.241208 0)
(10.8812 -0.245331 0)
(10.8672 -0.248396 0)
(10.8447 -0.246462 0)
(10.8178 -0.243879 0)
(10.3022 -0.365434 0)
(10.5232 -0.750671 0)
(10.7694 -0.716742 0)
(10.9012 -0.543066 0)
(10.9483 -0.431237 0)
(10.9545 -0.389179 0)
(10.9461 -0.364544 0)
(10.914 -0.333758 0)
(10.8711 -0.299551 0)
(10.8213 -0.268164 0)
(10.7723 -0.247073 0)
(10.7158 -0.235715 0)
(10.6516 -0.232997 0)
(10.5727 -0.23678 0)
(10.4891 -0.243041 0)
(10.398 -0.248271 0)
(10.3088 -0.248906 0)
(10.2183 -0.245265 0)
(10.2592 -0.420303 0)
(10.661 -0.873274 0)
(10.789 -0.787197 0)
(10.7326 -0.559964 0)
(10.5374 -0.421771 0)
(10.2727 -0.361053 0)
(9.99358 -0.322828 0)
(9.72835 -0.282727 0)
(9.48677 -0.244788 0)
(9.27274 -0.210587 0)
(9.08304 -0.185631 0)
(8.90768 -0.165563 0)
(8.74796 -0.153707 0)
(8.59037 -0.145225 0)
(8.44794 -0.144106 0)
(8.30213 -0.144624 0)
(8.1721 -0.146735 0)
(8.03505 -0.145097 0)
(10.0997 -0.786557 0)
(9.99787 -1.03226 0)
(9.33019 -0.794875 0)
(8.59765 -0.524717 0)
(7.93922 -0.337291 0)
(7.37491 -0.225142 0)
(6.90216 -0.15722 0)
(6.51892 -0.11322 0)
(6.20683 -0.0847211 0)
(5.96264 -0.0662399 0)
(5.75835 -0.0561698 0)
(5.59108 -0.0501585 0)
(5.43945 -0.0499832 0)
(5.30445 -0.050493 0)
(5.17545 -0.0575197 0)
(5.04671 -0.059146 0)
(4.92944 -0.0671756 0)
(4.79545 -0.0647846 0)
(8.64513 -0.372608 0)
(6.18269 -0.34826 0)
(4.37743 -0.129878 0)
(3.30773 -0.0146334 0)
(2.73735 0.0253917 0)
(2.4248 0.0333964 0)
(2.23354 0.026974 0)
(2.10338 0.0185211 0)
(2.00396 0.0123364 0)
(1.92716 0.00782082 0)
(1.86115 0.00482912 0)
(1.80665 0.00324438 0)
(1.75248 0.00213173 0)
(1.7052 0.00107714 0)
(1.64876 -0.00115759 0)
(1.59895 -0.00119055 0)
(1.53247 -0.00934297 0)
(1.46453 0.00479971 0)
(-0.0579223 0.128838 0)
(-0.185713 0.135467 0)
(-0.313931 0.134544 0)
(-0.444022 0.133906 0)
(-0.5739 0.132868 0)
(-0.704502 0.131568 0)
(-0.834555 0.13003 -1.4009e-20)
(-0.964459 0.128255 1.39125e-20)
(-1.09362 0.12634 0)
(-1.22169 0.12423 1.37214e-20)
(-1.34792 0.121799 0)
(-1.47216 0.118972 0)
(-1.59382 0.115715 0)
(-1.7119 0.111859 -1.33351e-20)
(-1.82557 0.107261 0)
(-1.93385 0.101845 0)
(-2.03573 0.0955383 1.30225e-20)
(-2.12984 0.0882242 0)
(-2.21532 0.0798601 0)
(-2.29062 0.0705341 0)
(-2.35444 0.0601517 -1.25339e-20)
(-2.40558 0.0488749 0)
(-2.44293 0.0365975 -1.22437e-20)
(-2.46552 0.0237303 0)
(-2.47227 0.0103335 0)
(-2.46227 -0.00331129 -1.17383e-20)
(-2.43482 -0.0170644 0)
(-2.39005 -0.0307339 1.13535e-20)
(-2.32791 -0.0440037 0)
(-2.24885 -0.0567671 -1.09361e-20)
(-2.15354 -0.0686933 0)
(-2.04275 -0.0796311 0)
(-1.91761 -0.0893838 0)
(-1.77936 -0.0978263 0)
(-1.62946 -0.104839 0)
(-1.46944 -0.110348 9.59576e-21)
(-1.30101 -0.114337 0)
(-1.12597 -0.116789 -1.83218e-20)
(-0.945687 -0.117698 0)
(-0.762246 -0.117413 1.74993e-20)
(-0.577793 -0.1157 0)
(-0.393106 -0.112681 0)
(-0.20969 -0.108714 -1.63805e-20)
(-0.0296953 -0.104091 0)
(0.146206 -0.0985344 -1.57184e-20)
(0.317502 -0.0924066 1.54121e-20)
(0.483008 -0.0858524 0)
(0.64199 -0.0790025 1.48464e-20)
(0.79386 -0.0719801 1.45856e-20)
(0.93818 -0.0649008 0)
(1.07465 -0.0578658 0)
(1.20306 -0.0509568 0)
(1.32332 -0.0442415 0)
(1.43537 -0.0377825 0)
(1.53929 -0.0316377 -1.32749e-20)
(1.63522 -0.0258489 0)
(1.72334 -0.0204383 1.29144e-20)
(1.80386 -0.0154195 0)
(1.87705 -0.0108097 0)
(1.94323 -0.00662259 -1.24246e-20)
(2.00274 -0.0028549 0)
(2.05591 0.000509444 1.2125e-20)
(2.1031 0.00348567 0)
(2.14469 0.00608125 0)
(2.18106 0.0083129 0)
(2.21258 0.0102101 -1.15729e-20)
(2.23962 0.0117978 0)
(2.26252 0.0131055 0)
(2.28163 0.0141437 -1.11889e-20)
(2.29732 0.0149474 0)
(2.30985 0.0155534 -1.0943e-20)
(2.31957 0.015951 0)
(2.32672 0.0162003 0)
(2.33158 0.016343 0)
(2.33444 0.0163028 1.04689e-20)
(2.33552 0.0160419 0)
(2.33497 0.0157101 0)
(2.33302 0.015358 1.01248e-20)
(2.32983 0.0149896 1.00117e-20)
(2.32557 0.0146068 0)
(2.32034 0.0142139 9.78774e-21)
(2.31429 0.0138107 0)
(2.30751 0.0133945 1.91327e-20)
(2.30009 0.0129819 0)
(2.29213 0.012563 1.86945e-20)
(2.28369 0.0121269 0)
(2.27482 0.0117285 -1.82606e-20)
(2.26557 0.0113672 0)
(2.256 0.0110147 0)
(2.24617 0.0106653 0)
(2.23613 0.0103172 1.74051e-20)
(2.22592 0.00997406 0)
(2.21557 0.00964424 -1.69832e-20)
(2.2051 0.00932674 0)
(2.19453 0.00901801 1.65653e-20)
(2.1839 0.00871783 1.63578e-20)
(2.17321 0.00842687 1.61513e-20)
(2.1625 0.00814385 0)
(2.15175 0.00787083 0)
(2.14099 0.00760949 0)
(2.13023 0.00735919 0)
(2.11949 0.00711911 0)
(2.10876 0.00688988 0)
(2.09806 0.00667143 0)
(2.08739 0.00646169 0)
(2.07675 0.00625883 -1.43384e-20)
(2.06615 0.00606328 -1.41421e-20)
(2.0556 0.00587663 0)
(2.04509 0.00569908 0)
(2.03463 0.00552866 0)
(2.02421 0.00536307 -1.33677e-20)
(2.01385 0.00520171 0)
(2.00354 0.00504623 0)
(1.99328 0.00489829 0)
(1.98308 0.00475744 0)
(1.97293 0.00462147 1.24238e-20)
(1.96283 0.00448837 0)
(1.95279 0.00435792 0)
(1.9428 0.00423125 -1.18702e-20)
(1.93288 0.00410954 1.16879e-20)
(1.92301 0.00399287 0)
(1.91319 0.00388027 1.13263e-20)
(1.90343 0.00377065 0)
(1.89373 0.00366342 -1.0969e-20)
(1.88408 0.00355846 0)
(1.87449 0.00345587 0)
(1.86496 0.00335609 0)
(1.85548 0.00325974 0)
(1.84606 0.00316706 0)
(1.8367 0.00307755 1.98442e-20)
(1.82739 0.00299004 1.95024e-20)
(1.81813 0.0029034 0)
(1.80892 0.00281746 0)
(1.79977 0.00273315 0)
(1.79067 0.00265179 -1.81553e-20)
(1.78163 0.00257393 0)
(1.77264 0.00249887 0)
(1.7637 0.00242511 0)
(1.75481 0.00235146 -1.68397e-20)
(1.74597 0.00227799 1.65156e-20)
(1.73719 0.00220598 0)
(1.72846 0.00213692 0)
(1.71978 0.00207109 1.55546e-20)
(1.71115 0.00200738 1.52379e-20)
(1.70257 0.00194445 0)
(1.69403 0.00188169 0)
(1.68554 0.0018195 -1.42986e-20)
(1.67711 0.00175893 1.3989e-20)
(1.66872 0.00170098 0)
(1.66037 0.00164594 0)
(1.65207 0.00159313 1.30706e-20)
(1.64381 0.00154159 0)
(1.63558 0.001491 0)
(1.62738 0.00144188 1.21671e-20)
(1.61922 0.00139478 0)
(1.61108 0.00135024 1.15727e-20)
(1.60296 0.00130954 0)
(1.59486 0.00127098 0)
(1.58674 0.00123994 0)
(1.57862 0.00120505 -1.04021e-20)
(1.57041 0.00119298 0)
(1.56227 0.00114737 0)
(1.55377 0.00119195 0)
(1.54571 0.00107458 0)
(1.53635 0.00130898 0)
(1.52891 0.000914743 0)
(1.51721 0.00167603 -8.40479e-21)
(1.51193 0.000577026 -8.12154e-21)
(1.49491 0.00236474 0)
(1.49437 0.000207072 0)
(1.46811 0.00314572 0)
(1.47366 0.000465035 6.99912e-21)
(1.43619 0.00342893 0)
(1.44449 0.00214021 -1.28717e-20)
(1.39589 0.00349048 1.23054e-20)
(1.39889 0.00505419 1.17248e-20)
(1.34013 0.00597944 -1.1149e-20)
(1.31165 0.00750986 1.05462e-20)
(1.27169 0.019665 -9.93652e-21)
(1.07561 -0.00618609 0)
(-0.0545719 0.38839 0)
(-0.190012 0.416472 0)
(-0.321208 0.413577 2.88674e-20)
(-0.456057 0.413237 0)
(-0.590919 0.411421 -2.84664e-20)
(-0.727044 0.408881 -2.82708e-20)
(-0.863335 0.405333 -1.4066e-20)
(-0.999787 0.400711 -1.39162e-20)
(-1.1357 0.394909 0)
(-1.27093 0.387787 -1.37264e-20)
(-1.40437 0.379112 0)
(-1.53557 0.36857 0)
(-1.66377 0.356044 2.69506e-20)
(-1.7879 0.341122 1.33427e-20)
(-1.90689 0.323566 -2.65626e-20)
(-2.01949 0.303198 -2.636e-20)
(-2.12476 0.279855 -1.30317e-20)
(-2.22118 0.25333 0)
(-2.30765 0.223588 0)
(-2.38265 0.190799 0)
(-2.4446 0.154954 -1.26449e-20)
(-2.49282 0.116371 0)
(-2.5259 0.075183 3.68661e-20)
(-2.54233 0.0322307 0)
(-2.54163 -0.0123254 0)
(-2.52283 -0.0576825 1.17474e-20)
(-2.48543 -0.103209 0)
(-2.42942 -0.148354 -1.13618e-20)
(-2.35476 -0.192223 -2.2401e-20)
(-2.26208 -0.234361 1.09436e-20)
(-2.15193 -0.273901 0)
(-2.02521 -0.310521 0)
(-1.88309 -0.343527 0)
(-1.72687 -0.372632 -2.0153e-20)
(-1.55799 -0.397474 -1.96938e-20)
(-1.37806 -0.417872 -9.60128e-21)
(-1.18874 -0.433818 0)
(-0.991793 -0.445306 1.83323e-20)
(-0.788843 -0.452371 0)
(-0.581545 -0.455519 -1.75097e-20)
(-0.371675 -0.454827 0)
(-0.16062 -0.450238 0)
(0.0499135 -0.44294 1.63914e-20)
(0.258841 -0.433142 0)
(0.46554 -0.420823 4.71978e-20)
(0.668917 -0.406593 -1.54239e-20)
(0.868173 -0.39083 0)
(1.06265 -0.373875 -1.4859e-20)
(1.25179 -0.356035 -1.45986e-20)
(1.43516 -0.337589 0)
(1.61244 -0.318788 0)
(1.78339 -0.299847 0)
(1.94783 -0.280945 0)
(2.10564 -0.262242 0)
(2.25675 -0.243876 1.32902e-20)
(2.40116 -0.225967 2.62174e-20)
(2.53889 -0.208606 -1.29303e-20)
(2.66999 -0.191867 0)
(2.79455 -0.175812 2.5202e-20)
(2.91267 -0.160496 -1.24467e-20)
(3.0245 -0.14596 0)
(3.1302 -0.132218 -1.21418e-20)
(3.22991 -0.119286 0)
(3.32382 -0.107164 0)
(3.41211 -0.095858 -2.34521e-20)
(3.49502 -0.0853603 1.159e-20)
(3.57271 -0.0756284 -2.2925e-20)
(3.6454 -0.0666679 2.26689e-20)
(3.71333 -0.0584308 1.12058e-20)
(3.77666 -0.0508844 0)
(3.83568 -0.044024 1.09598e-20)
(3.89054 -0.0377652 0)
(3.94144 -0.0321038 0)
(3.98869 -0.0270074 0)
(4.03237 -0.0224061 1.04893e-20)
(4.07266 -0.0183008 0)
(4.10985 -0.0146358 2.05124e-20)
(4.14407 -0.0113577 -3.04246e-20)
(4.1755 -0.00842684 -1.00272e-20)
(4.20428 -0.00582261 0)
(4.23059 -0.00349748 -9.80281e-21)
(4.25458 -0.00144835 0)
(4.2764 0.000364961 -1.9162e-20)
(4.29619 0.00196985 0)
(4.31408 0.00336075 -1.87229e-20)
(4.3302 0.00461016 3.70134e-20)
(4.34469 0.00570031 1.82883e-20)
(4.35763 0.00660224 0)
(4.36908 0.00736495 0)
(4.37917 0.00802565 0)
(4.388 0.00859845 -1.74311e-20)
(4.39566 0.00908041 0)
(4.40223 0.00947702 1.70085e-20)
(4.40777 0.00981807 0)
(4.41235 0.0101158 -4.97706e-20)
(4.41604 0.0103477 -1.6382e-20)
(4.4189 0.0105369 -1.61751e-20)
(4.42098 0.0107005 0)
(4.42234 0.01083 0)
(4.42301 0.0109194 0)
(4.42304 0.0109763 0)
(4.42249 0.0110072 0)
(4.42138 0.0110167 -2.99108e-20)
(4.41975 0.011009 -2.95113e-20)
(4.41763 0.0109859 0)
(4.41506 0.0109481 1.43592e-20)
(4.41206 0.0108977 1.41626e-20)
(4.40866 0.0108375 0)
(4.40489 0.0107699 2.75454e-20)
(4.40076 0.0106953 0)
(4.3963 0.0106134 -1.33869e-20)
(4.39153 0.0105244 0)
(4.38646 0.0104296 0)
(4.38112 0.010331 2.56329e-20)
(4.37552 0.0102304 0)
(4.36968 0.0101277 -1.24417e-20)
(4.3636 0.0100216 0)
(4.3573 0.00991193 0)
(4.35079 0.00979966 -1.1887e-20)
(4.34409 0.00968626 -1.17047e-20)
(4.3372 0.00957284 0)
(4.33013 0.00945934 1.13422e-20)
(4.3229 0.009345 0)
(4.3155 0.00922957 -1.09844e-20)
(4.30794 0.00911344 -2.16145e-20)
(4.30024 0.008997 0)
(4.2924 0.00888062 0)
(4.28442 0.00876486 0)
(4.27631 0.00865037 0)
(4.26808 0.00853758 -1.98727e-20)
(4.25972 0.00842619 -5.85905e-20)
(4.25125 0.00831502 0)
(4.24266 0.00820296 0)
(4.23396 0.00809016 0)
(4.22516 0.0079782 1.81816e-20)
(4.21625 0.00786883 0)
(4.20724 0.00776255 0)
(4.19813 0.007658 -3.43803e-20)
(4.18891 0.007553 -1.68632e-20)
(4.17961 0.00744628 -1.65396e-20)
(4.17021 0.00733867 0)
(4.16072 0.0072328 0)
(4.15114 0.00713077 -1.55772e-20)
(4.14147 0.00703214 1.52592e-20)
(4.13171 0.00693481 0)
(4.12186 0.00683691 0)
(4.11192 0.00673811 1.43195e-20)
(4.1019 0.00663983 -4.20277e-20)
(4.09179 0.00654411 0)
(4.08159 0.00645293 0)
(4.07131 0.00636617 -1.30898e-20)
(4.06094 0.00628232 0)
(4.05047 0.0062006 -2.49693e-20)
(4.0399 0.00612157 1.21843e-20)
(4.02924 0.00604655 0)
(4.01848 0.00597739 -1.159e-20)
(4.0076 0.00591771 -2.25886e-20)
(3.99662 0.00586329 0)
(3.98546 0.00583209 0)
(3.97425 0.00578897 1.04177e-20)
(3.96264 0.00582081 0)
(3.95137 0.00575273 -1.96795e-20)
(3.93869 0.00595989 0)
(3.9282 0.00571251 0)
(3.91247 0.00643882 0)
(3.90563 0.00553802 0)
(3.88164 0.00762533 8.41752e-21)
(3.88507 0.00503031 8.13389e-21)
(3.84365 0.00992034 0)
(3.86535 0.00435504 0)
(3.80026 0.0132682 0)
(3.83705 0.00459897 -7.0098e-21)
(3.7592 0.0177094 0)
(3.78607 0.00649073 1.28913e-20)
(3.72049 0.0261676 -1.23239e-20)
(3.70591 0.00842665 -1.17424e-20)
(3.66963 0.0451861 -1.1179e-20)
(3.5768 0.0127502 -1.05615e-20)
(3.59762 0.08315 -9.98738e-21)
(3.33126 0.0386752 0)
(-0.050406 0.645325 0)
(-0.189524 0.702541 0)
(-0.321929 0.697746 -2.88675e-20)
(-0.459183 0.696861 -2.87531e-20)
(-0.596955 0.694573 2.84674e-20)
(-0.736133 0.690941 2.82724e-20)
(-0.876007 0.68582 -9.29347e-23)
(-1.01653 0.679047 0)
(-1.157 0.670269 0)
(-1.29706 0.659079 0)
(-1.43604 0.645188 0)
(-1.57327 0.627987 0)
(-1.70805 0.607178 -8.11058e-20)
(-1.83936 0.582292 0)
(-1.96587 0.552732 2.65675e-20)
(-2.08629 0.518294 2.63649e-20)
(-2.19958 0.47866 0)
(-2.30414 0.433552 0)
(-2.39849 0.382815 0)
(-2.48093 0.32675 0)
(-2.55011 0.265347 2.51925e-20)
(-2.60469 0.199183 0)
(-2.64288 0.128906 -2.46149e-20)
(-2.66368 0.0552613 0)
(-2.66615 -0.0208397 0)
(-2.64878 -0.0983467 0)
(-2.61139 -0.176002 -4.67847e-20)
(-2.5539 -0.252956 0)
(-2.47624 -0.327552 2.24029e-20)
(-2.37923 -0.399008 -4.42325e-20)
(-2.26363 -0.466107 0)
(-2.13051 -0.528026 0)
(-1.98114 -0.583822 0)
(-1.81715 -0.632943 2.01547e-20)
(-1.64018 -0.674792 1.96956e-20)
(-1.45218 -0.709127 0)
(-1.25499 -0.735882 0)
(-1.05047 -0.755148 -3.68127e-20)
(-0.84043 -0.767187 -3.59497e-20)
(-0.62683 -0.772389 3.51184e-20)
(-0.411037 -0.771092 0)
(-0.19515 -0.764421 0)
(0.0191398 -0.752681 0)
(0.231598 -0.736768 0)
(0.441195 -0.717241 -3.14733e-20)
(0.646948 -0.694766 -3.08818e-20)
(0.848196 -0.66996 3.02984e-20)
(1.04442 -0.643383 0)
(1.2352 -0.615534 0)
(1.42023 -0.58685 0)
(1.59933 -0.557704 0)
(1.77236 -0.528412 -2.78171e-20)
(1.93926 -0.499244 0)
(2.09998 -0.470429 0)
(2.25455 -0.442156 -2.66084e-20)
(2.40302 -0.414582 -2.6227e-20)
(2.54547 -0.387828 0)
(2.682 -0.361992 5.11039e-20)
(2.8127 -0.337152 -2.52126e-20)
(2.9377 -0.313368 2.48989e-20)
(3.05714 -0.290681 0)
(3.17118 -0.269115 0)
(3.27995 -0.24868 0)
(3.3836 -0.229379 0)
(3.48229 -0.211198 2.34644e-20)
(3.57619 -0.194125 4.64205e-20)
(3.66545 -0.17813 2.29377e-20)
(3.75023 -0.163173 -2.26818e-20)
(3.83068 -0.149236 0)
(3.90698 -0.136252 4.43844e-20)
(3.97928 -0.124197 4.38945e-20)
(4.04773 -0.11303 4.34108e-20)
(4.11248 -0.102678 -4.29326e-20)
(4.1737 -0.0931222 0)
(4.23151 -0.0843304 -6.29788e-20)
(4.28607 -0.0761919 0)
(4.33754 -0.0686848 2.0539e-20)
(4.38605 -0.061786 2.02979e-20)
(4.43173 -0.0554309 0)
(4.47472 -0.0495987 0)
(4.51514 -0.0442303 3.92535e-20)
(4.55312 -0.0393062 0)
(4.58881 -0.0347905 3.83639e-20)
(4.62228 -0.0306251 0)
(4.6537 -0.0268255 -3.74838e-20)
(4.68318 -0.0233265 -7.40875e-20)
(4.71072 -0.0201393 0)
(4.73649 -0.0172809 0)
(4.76065 -0.0146791 0)
(4.78324 -0.0122895 -3.53209e-20)
(4.80433 -0.0101025 0)
(4.824 -0.00811046 -3.44701e-20)
(4.84235 -0.0062926 0)
(4.85948 -0.00463284 0)
(4.87541 -0.00313083 6.64145e-20)
(4.89021 -0.00175797 0)
(4.904 -0.000513961 3.23781e-20)
(4.9168 0.000607726 0)
(4.92866 0.00163997 3.15554e-20)
(4.93965 0.00258312 0)
(4.94982 0.00343803 0)
(4.95922 0.00421141 0)
(4.9679 0.00491132 8.98027e-20)
(4.97591 0.00554509 2.95334e-20)
(4.98328 0.00611713 0)
(4.99004 0.00663086 0)
(4.99625 0.00709099 0)
(5.00193 0.00750302 0)
(5.00712 0.00787166 -2.7566e-20)
(5.01184 0.00820062 5.43596e-20)
(5.01612 0.00849287 2.6794e-20)
(5.01999 0.00875093 -5.28239e-20)
(5.02348 0.00897752 -5.20625e-20)
(5.02661 0.0091757 -2.56521e-20)
(5.0294 0.00934858 0)
(5.03188 0.00949799 -4.98043e-20)
(5.03405 0.00962497 0)
(5.03594 0.00973124 4.83205e-20)
(5.03757 0.00981902 2.37921e-20)
(5.03895 0.00989053 0)
(5.0401 0.00994764 -4.6127e-20)
(5.04103 0.00999128 -2.27019e-20)
(5.04174 0.0100218 0)
(5.04226 0.0100401 -2.19861e-20)
(5.0426 0.0100476 6.48926e-20)
(5.04277 0.0100456 0)
(5.04277 0.0100354 0)
(5.04261 0.0100179 0)
(5.04231 0.00999392 0)
(5.04186 0.00996424 3.97748e-20)
(5.04128 0.00992914 3.90896e-20)
(5.04057 0.00988841 0)
(5.03974 0.00984185 0)
(5.03879 0.00979018 0)
(5.03772 0.0097352 0)
(5.03655 0.00967872 0)
(5.03528 0.00962123 0)
(5.0339 0.00956159 3.44064e-20)
(5.03242 0.00949812 -8.51501e-26)
(5.03085 0.00943009 0)
(5.02918 0.00935886 0)
(5.02742 0.0092874 3.18157e-20)
(5.02558 0.00921789 0)
(5.02364 0.00914966 -3.05426e-20)
(5.02161 0.00908049 -2.99116e-20)
(5.0195 0.00900872 0)
(5.0173 0.00893458 0)
(5.01501 0.0088602 2.80397e-20)
(5.01264 0.00878823 5.48455e-20)
(5.01017 0.0087206 0)
(5.00762 0.00865705 0)
(5.00498 0.00859581 0)
(5.00223 0.00853652 2.49886e-20)
(4.99939 0.00848054 -2.43883e-20)
(4.99645 0.0084298 0)
(4.99341 0.00838809 -4.63944e-20)
(4.99025 0.0083572 -2.26064e-20)
(4.98696 0.00834162 4.40368e-20)
(4.98353 0.0083378 0)
(4.98 0.00837029 0)
(4.97614 0.00839144 4.05442e-20)
(4.97251 0.00852608 1.96949e-20)
(4.96768 0.00855745 0)
(4.96468 0.0088572 0)
(4.95719 0.00902273 0)
(4.95726 0.00918354 0)
(4.94276 0.0105567 3.36987e-20)
(4.95121 0.00860009 0)
(4.92258 0.0150245 0)
(4.94504 0.00563157 0)
(4.89898 0.0241111 0)
(4.92973 0.00147071 0)
(4.87988 0.0354207 0)
(4.89289 0.00272487 2.58326e-20)
(4.8652 0.0461269 0)
(4.83305 0.0121987 0)
(4.83677 0.066686 4.47588e-20)
(4.74908 0.0302634 -2.12362e-20)
(4.77829 0.109135 1.99531e-20)
(4.61288 0.0899407 -1.88871e-20)
(-0.0439581 0.89057 0)
(-0.186229 0.988202 5.8551e-20)
(-0.323487 0.980937 0)
(-0.464308 0.986361 2.87531e-20)
(-0.603607 0.984302 0)
(-0.746886 0.981664 0)
(-0.8902 0.976743 -2.84396e-20)
(-1.035 0.968937 0)
(-1.18077 0.958066 0)
(-1.32713 0.943759 0)
(-1.47336 0.925525 0)
(-1.61874 0.902523 0)
(-1.76222 0.874372 1.08652e-19)
(-1.90336 0.839996 5.41503e-20)
(-2.04035 0.799226 -5.37932e-20)
(-2.17176 0.750731 0)
(-2.29636 0.694586 0)
(-2.41243 0.630096 0)
(-2.51805 0.557152 0)
(-2.61123 0.475948 0)
(-2.69015 0.386616 5.12532e-20)
(-2.75279 0.290188 5.0717e-20)
(-2.79762 0.187344 -5.01359e-20)
(-2.82288 0.0794807 4.95063e-20)
(-2.82747 -0.0319839 0)
(-2.80981 -0.145527 0)
(-2.76987 -0.259156 4.67831e-20)
(-2.7072 -0.371125 0)
(-2.62202 -0.480036 0)
(-2.51552 -0.583756 4.4231e-20)
(-2.38839 -0.680999 4.3718e-20)
(-2.24221 -0.770552 4.27459e-20)
(-2.07844 -0.850749 0)
(-1.8992 -0.921205 0)
(-1.70636 -0.980785 -3.97909e-20)
(-1.50244 -1.02932 0)
(-1.28964 -1.06659 0)
(-1.07022 -1.09302 3.68121e-20)
(-0.84621 -1.10895 -3.61868e-20)
(-0.619448 -1.11487 3.5314e-20)
(-0.392632 -1.11201 0)
(-0.167074 -1.10146 0)
(0.0558809 -1.08374 6.5788e-20)
(0.274972 -1.06038 0)
(0.489975 -1.03221 6.30814e-20)
(0.699805 -1.00019 9.27205e-20)
(0.903921 -0.965192 -9.09631e-20)
(1.10193 -0.927989 5.95553e-20)
(1.29356 -0.889257 0)
(1.47865 -0.849574 0)
(1.65712 -0.809422 5.65761e-20)
(1.82897 -0.769208 2.78179e-20)
(1.99422 -0.729274 0)
(2.15292 -0.689902 0)
(2.30516 -0.651313 2.66095e-20)
(2.45108 -0.613687 5.25295e-20)
(2.59084 -0.577174 0)
(2.72456 -0.541892 -5.11069e-20)
(2.8524 -0.507932 5.04977e-20)
(2.97453 -0.475352 -4.98691e-20)
(3.09115 -0.444195 0)
(3.20243 -0.414488 0)
(3.30855 -0.386244 0)
(3.40968 -0.359457 0)
(3.50601 -0.334108 0)
(3.59772 -0.310176 -4.64257e-20)
(3.68498 -0.287625 0)
(3.76796 -0.266421 0)
(3.84682 -0.246512 0)
(3.92173 -0.227848 -8.88082e-20)
(3.99286 -0.210384 -4.3901e-20)
(4.06034 -0.194068 -4.34175e-20)
(4.12433 -0.178834 8.59017e-20)
(4.18499 -0.164643 -4.24879e-20)
(4.24245 -0.151424 4.1998e-20)
(4.29684 -0.139119 0)
(4.3483 -0.127681 -4.10727e-20)
(4.39696 -0.117061 0)
(4.44295 -0.107215 0)
(4.4864 -0.0980741 0)
(4.52741 -0.0896135 -7.85368e-20)
(4.5661 -0.0817667 3.88282e-20)
(4.60261 -0.0744981 3.83955e-20)
(4.63703 -0.0677776 7.58841e-20)
(4.66946 -0.0615429 1.12497e-19)
(4.69998 -0.055814 3.70558e-20)
(4.72868 -0.0505299 0)
(4.75571 -0.0456127 7.23934e-20)
(4.78118 -0.04106 0)
(4.80514 -0.0368573 1.06004e-19)
(4.82762 -0.0329781 0)
(4.84874 -0.0294033 1.0345e-19)
(4.86857 -0.0260982 0)
(4.88716 -0.0230471 0)
(4.9046 -0.0202541 3.32275e-20)