/*--------------------------------*- C++ -*----------------------------------*\
| =========                 |                                                 |
| \\      /  F ield         | OpenFOAM: The Open Source CFD Toolbox           |
|  \\    /   O peration     | Version:  2.1.x                                 |
|   \\  /    A nd           | Web:      www.OpenFOAM.org                      |
|    \\/     M anipulation  |                                                 |
\*---------------------------------------------------------------------------*/
FoamFile
{
    version     2.0;
    format      ascii;
    class       volVectorField;
    location    "0.006";
    object      U_0;
}
// * * * * * * * * * * * * * * * * * * * * * * * * * * * * * * * * * * * * * //

dimensions      [0 1 -1 0 0 0 0];

internalField   nonuniform List<vector> 
12225
(
(7.20425 0.416346 0)
(4.50157 0.18618 0)
(3.0806 0.0284134 0)
(2.41552 -0.0104484 0)
(2.11525 -0.0107914 0)
(1.97565 -0.00758681 0)
(1.91408 -0.00717017 0)
(1.88724 -0.00469625 0)
(1.84051 0.001635 0)
(1.80586 0.000324259 0)
(1.77598 -0.00145228 0)
(1.80317 -0.00603587 0)
(1.78783 -0.00231664 0)
(1.83286 -0.00311752 0)
(1.80041 -0.00207453 0)
(1.87228 -0.00226494 0)
(1.78247 0.0139533 0)
(2.02543 -0.0622422 0)
(9.8843 0.967396 0)
(9.05734 0.852914 0)
(7.88692 0.447945 0)
(6.88881 0.223853 0)
(6.19813 0.115366 0)
(5.7888 0.0574978 0)
(5.54499 0.0223749 0)
(5.3823 0.0178925 0)
(5.21474 0.0271548 0)
(5.12716 0.0166415 0)
(5.01146 0.00250418 0)
(5.05397 -0.00551469 0)
(4.95372 -0.00321986 0)
(5.05358 -0.00648438 0)
(4.95072 -0.0103662 0)
(5.06728 -0.0111723 0)
(4.97465 -0.00735731 0)
(5.28638 -0.0994194 0)
(10.1553 0.756562 0)
(10.6569 0.920702 0)
(10.4772 0.590211 0)
(9.96482 0.389007 0)
(9.40187 0.270468 0)
(8.978 0.178266 0)
(8.67909 0.108442 0)
(8.44973 0.0954198 0)
(8.21636 0.0970783 0)
(8.08515 0.0651538 0)
(7.90361 0.0251813 0)
(7.89551 0.00295855 0)
(7.77737 0.00882102 0)
(7.80898 -0.00864591 0)
(7.77347 0.00160475 0)
(7.73494 -0.0131861 0)
(7.79191 -0.039299 0)
(7.94271 -0.152155 0)
(10.4025 0.637648 0)
(10.9595 0.897321 0)
(11.2032 0.645715 0)
(11.2066 0.479312 0)
(11.0151 0.384753 0)
(10.7788 0.276601 0)
(10.6105 0.181944 0)
(10.4593 0.163049 0)
(10.3433 0.16822 0)
(10.2721 0.12852 0)
(10.1701 0.0788603 0)
(10.1386 0.0373409 0)
(10.067 0.0395991 0)
(10.042 0.00170362 0)
(10.0537 -0.00114508 0)
(9.90386 -0.00474622 0)
(9.99633 -0.0785131 0)
(10.1753 -0.166034 0)
(9.69716 0.418048 0)
(10.2881 0.7262 0)
(10.7657 0.523243 0)
(11.1146 0.369833 0)
(11.2689 0.339535 0)
(11.246 0.272763 0)
(11.1683 0.192611 0)
(11.0487 0.184058 0)
(11.0414 0.184533 0)
(11.0854 0.135299 0)
(11.1475 0.0811313 0)
(11.2164 0.0439123 0)
(11.274 0.0488514 0)
(11.2732 0.0134508 0)
(11.1438 0.0456152 0)
(10.9538 0.0424811 0)
(11.0778 -0.171163 0)
(11.2139 -0.233359 0)
(10.2239 0.454686 0)
(10.5295 0.704232 0)
(10.7007 0.537749 0)
(10.8148 0.36748 0)
(10.9406 0.342261 0)
(11.0361 0.297326 0)
(11.0077 0.231431 0)
(10.9385 0.20245 0)
(10.9579 0.155785 0)
(11.056 0.0648778 0)
(11.1845 0.00032225 0)
(11.2863 -0.0343316 0)
(11.337 -0.00494725 0)
(11.2734 0.0739122 0)
(11.1918 0.135431 0)
(11.2504 -0.00267279 0)
(11.2568 -0.21153 0)
(11.1343 -0.110322 0)
(9.73161 0.203845 0)
(10.1973 0.533626 0)
(10.479 0.468465 0)
(10.6273 0.289408 0)
(10.7348 0.211432 0)
(10.8298 0.1921 0)
(10.8216 0.187567 0)
(10.8209 0.186928 0)
(10.8811 0.130368 0)
(10.9656 0.029951 0)
(11.0039 -0.0216529 0)
(11.0357 -0.0195545 0)
(11.0315 0.0519616 0)
(11.043 0.0962377 0)
(11.1158 0.0547351 0)
(11.1361 0.00365019 0)
(11.0797 -0.102721 0)
(11.2128 -0.0721214 0)
(9.8913 0.175289 0)
(10.1696 0.490614 0)
(10.3824 0.447267 0)
(10.4926 0.325996 0)
(10.4859 0.268609 0)
(10.48 0.251527 0)
(10.4681 0.214963 0)
(10.5429 0.177591 0)
(10.6841 0.10091 0)
(10.8053 0.00664109 0)
(10.8631 -0.0409569 0)
(10.8963 -0.0428172 0)
(10.9241 -0.021115 0)
(10.9939 0.0169305 0)
(11.0408 0.0662341 0)
(11.0336 -0.000990986 0)
(11.096 -0.25284 0)
(11.2996 -0.170191 0)
(9.80825 0.135663 0)
(10.0908 0.353 0)
(10.3298 0.386992 0)
(10.4435 0.334955 0)
(10.4039 0.264828 0)
(10.372 0.200914 0)
(10.3904 0.135812 0)
(10.4925 0.0765125 0)
(10.6404 0.00684819 0)
(10.7613 -0.0561476 0)
(10.8189 -0.0635166 0)
(10.8496 -0.0420851 0)
(10.872 -0.00127939 0)
(10.8674 0.0388994 0)
(10.8593 0.0478626 0)
(10.9366 -0.0394251 0)
(10.9995 -0.266394 0)
(10.9448 -0.16005 0)
(9.82625 0.17062 0)
(9.94201 0.299554 0)
(10.1152 0.315422 0)
(10.3118 0.308994 0)
(10.4417 0.299325 0)
(10.5205 0.245522 0)
(10.5734 0.151437 0)
(10.5981 0.0598691 0)
(10.617 -0.0194151 0)
(10.6017 -0.0875956 0)
(10.5781 -0.0989044 0)
(10.5669 -0.0726846 0)
(10.5919 -0.039601 0)
(10.6381 0.00903658 0)
(10.7032 0.0109473 0)
(10.7931 -0.107369 0)
(10.8104 -0.257759 0)
(10.703 -0.0717531 0)
(10.2327 0.135365 0)
(10.3831 0.218943 0)
(10.4139 0.257375 0)
(10.4286 0.25596 0)
(10.464 0.227703 0)
(10.5374 0.171303 0)
(10.6054 0.108977 0)
(10.6425 0.0554197 0)
(10.6321 0.00352894 0)
(10.5805 -0.0318454 0)
(10.494 -0.0439104 0)
(10.4314 -0.0371008 0)
(10.4204 -0.03557 0)
(10.4469 -0.0291883 0)
(10.5104 -0.0525596 0)
(10.5967 -0.121485 0)
(10.5848 -0.200173 0)
(10.5514 -0.202679 0)
(9.94432 0.0641238 0)
(9.95443 0.155214 0)
(10.0027 0.277458 0)
(10.1118 0.296397 0)
(10.254 0.248776 0)
(10.4101 0.174607 0)
(10.5174 0.0861532 0)
(10.5644 0.0309328 0)
(10.5133 -0.00285018 0)
(10.4417 -0.0301442 0)
(10.3555 -0.0381712 0)
(10.3224 -0.0384043 0)
(10.338 -0.0532365 0)
(10.3903 -0.0819755 0)
(10.453 -0.119035 0)
(10.522 -0.14656 0)
(10.5355 -0.233522 0)
(10.6317 -0.396963 0)
(10.2344 0.192174 0)
(10.1856 0.186891 0)
(10.1577 0.18244 0)
(10.2141 0.115659 0)
(10.3035 0.0381898 0)
(10.372 0.0201031 0)
(10.4105 0.0473223 0)
(10.4181 0.0874033 0)
(10.3901 0.101485 0)
(10.3602 0.078477 0)
(10.3376 0.0317406 0)
(10.3265 -0.0206934 0)
(10.3445 -0.0833601 0)
(10.3845 -0.139533 0)
(10.4158 -0.164492 0)
(10.4566 -0.190214 0)
(10.48 -0.354622 0)
(10.4684 -0.508761 0)
(10.1518 0.0745543 0)
(10.2236 0.172732 0)
(10.2438 0.248325 0)
(10.2213 0.231851 0)
(10.1638 0.189941 0)
(10.1084 0.138848 0)
(10.108 0.0905602 0)
(10.1749 0.0472466 0)
(10.2627 0.007656 0)
(10.3533 -0.0214149 0)
(10.4242 -0.0536293 0)
(10.4633 -0.0780945 0)
(10.491 -0.117273 0)
(10.5003 -0.182461 0)
(10.4812 -0.232067 0)
(10.4781 -0.219547 0)
(10.4665 -0.205668 0)
(10.3599 -0.479358 0)
(9.87924 0.0893089 0)
(9.90423 0.154538 0)
(9.93112 0.175932 0)
(10.0576 0.144553 0)
(10.2104 0.0917078 0)
(10.3003 0.0327772 0)
(10.3419 -0.00967176 0)
(10.3705 -0.0342961 0)
(10.378 -0.057043 0)
(10.3995 -0.0715209 0)
(10.4234 -0.0880746 0)
(10.4454 -0.10235 0)
(10.4556 -0.111591 0)
(10.4602 -0.126235 0)
(10.4424 -0.144948 0)
(10.453 -0.157086 0)
(10.5108 -0.190718 0)
(10.4318 -0.466153 0)
(9.67926 0.157874 0)
(9.74884 0.0550892 0)
(9.89269 0.0164294 0)
(10.0543 0.011773 0)
(10.1578 0.0154071 0)
(10.1865 0.0291206 0)
(10.1936 0.0407694 0)
(10.2091 0.0362881 0)
(10.2275 -0.00282906 0)
(10.2606 -0.0538334 0)
(10.2925 -0.109451 0)
(10.3188 -0.156226 0)
(10.3286 -0.178015 0)
(10.3429 -0.19344 0)
(10.355 -0.268919 0)
(10.349 -0.374161 0)
(10.3236 -0.174338 0)
(10.3693 0.25113 0)
(9.69009 -0.104899 0)
(9.71619 -0.236559 0)
(9.8705 -0.196042 0)
(10.0763 -0.120094 0)
(10.226 -0.0674344 0)
(10.2829 -0.0490793 0)
(10.2878 -0.0648102 0)
(10.2868 -0.0921451 0)
(10.2837 -0.125778 0)
(10.2929 -0.151504 0)
(10.3112 -0.16286 0)
(10.3276 -0.161203 0)
(10.3347 -0.155635 0)
(10.337 -0.167883 0)
(10.3328 -0.145578 0)
(10.3005 -0.0713944 0)
(10.2698 -0.267715 0)
(10.3211 -0.693267 0)
(10.2227 -0.0414987 0)
(10.0987 -0.277427 0)
(10.0037 -0.379671 0)
(9.94348 -0.330342 0)
(9.96741 -0.203221 0)
(10.0297 -0.0518768 0)
(10.0927 0.0524442 0)
(10.1347 0.0755491 0)
(10.1285 0.0285438 0)
(10.1038 -0.0570451 0)
(10.0922 -0.142879 0)
(10.1007 -0.207732 0)
(10.125 -0.235026 0)
(10.1464 -0.227716 0)
(10.1738 -0.224744 0)
(10.2273 -0.27408 0)
(10.2982 -0.222664 0)
(10.244 0.0198444 0)
(9.96832 -0.111502 0)
(9.92465 -0.00241299 0)
(9.85506 -0.0904106 0)
(9.75208 -0.199265 0)
(9.74878 -0.251772 0)
(9.85464 -0.233871 0)
(10.0053 -0.176306 0)
(10.1379 -0.123959 0)
(10.2254 -0.0935236 0)
(10.2642 -0.0992963 0)
(10.2799 -0.140493 0)
(10.2857 -0.202079 0)
(10.2852 -0.261091 0)
(10.2756 -0.307442 0)
(10.2803 -0.325917 0)
(10.291 -0.300512 0)
(10.2983 -0.296563 0)
(10.3478 -0.381951 0)
(9.96976 -0.129857 0)
(10.058 -0.0407735 0)
(10.1461 -0.1304 0)
(10.1433 -0.243464 0)
(10.0954 -0.298143 0)
(10.0432 -0.30483 0)
(10.04 -0.264707 0)
(10.0897 -0.203271 0)
(10.16 -0.148973 0)
(10.2301 -0.125451 0)
(10.2907 -0.142224 0)
(10.3345 -0.188478 0)
(10.3531 -0.243896 0)
(10.3389 -0.285029 0)
(10.302 -0.306061 0)
(10.2731 -0.317277 0)
(10.2747 -0.311137 0)
(10.2662 -0.267437 0)
(10.1119 0.0106067 0)
(10.1118 -0.14143 0)
(10.1161 -0.194001 0)
(10.172 -0.193794 0)
(10.2125 -0.174175 0)
(10.2194 -0.188684 0)
(10.2294 -0.229153 0)
(10.257 -0.266389 0)
(10.2864 -0.28491 0)
(10.3153 -0.285651 0)
(10.339 -0.277372 0)
(10.3603 -0.268408 0)
(10.3758 -0.264718 0)
(10.3729 -0.262146 0)
(10.3592 -0.259223 0)
(10.3429 -0.254551 0)
(10.3288 -0.257984 0)
(10.3212 -0.279988 0)
(10.1196 0.0417562 0)
(10.1139 -0.0234753 0)
(10.1991 -0.189636 0)
(10.36 -0.311514 0)
(10.4886 -0.337186 0)
(10.5326 -0.303602 0)
(10.5341 -0.247772 0)
(10.5168 -0.203013 0)
(10.4816 -0.184468 0)
(10.4368 -0.191316 0)
(10.3962 -0.214522 0)
(10.3641 -0.245965 0)
(10.3499 -0.276673 0)
(10.3372 -0.295864 0)
(10.3269 -0.29729 0)
(10.3156 -0.286816 0)
(10.3165 -0.270629 0)
(10.3218 -0.253285 0)
(9.67786 -0.00638 0)
(9.95545 -0.211898 0)
(10.1861 -0.408316 0)
(10.3341 -0.40126 0)
(10.4064 -0.315927 0)
(10.4413 -0.243974 0)
(10.484 -0.204113 0)
(10.5354 -0.200755 0)
(10.5854 -0.211359 0)
(10.623 -0.223704 0)
(10.6437 -0.230973 0)
(10.6474 -0.233916 0)
(10.6472 -0.237291 0)
(10.6438 -0.240573 0)
(10.6406 -0.241257 0)
(10.6396 -0.244148 0)
(10.6467 -0.250289 0)
(10.6519 -0.268852 0)
(9.89484 -0.142276 0)
(10.1615 -0.382443 0)
(10.3142 -0.478277 0)
(10.3816 -0.441345 0)
(10.4466 -0.375493 0)
(10.5437 -0.312331 0)
(10.6517 -0.267678 0)
(10.7239 -0.249986 0)
(10.7408 -0.244745 0)
(10.7129 -0.246573 0)
(10.659 -0.257648 0)
(10.606 -0.270904 0)
(10.5748 -0.286621 0)
(10.5647 -0.301806 0)
(10.577 -0.304343 0)
(10.5948 -0.296882 0)
(10.6172 -0.280456 0)
(10.6316 -0.26302 0)
(9.83842 -0.198538 0)
(10.068 -0.531202 0)
(10.3288 -0.547408 0)
(10.5465 -0.459395 0)
(10.6921 -0.394685 0)
(10.7888 -0.365904 0)
(10.8544 -0.337076 0)
(10.9018 -0.291349 0)
(10.9345 -0.234745 0)
(10.9541 -0.190932 0)
(10.9602 -0.172441 0)
(10.9451 -0.179955 0)
(10.9197 -0.206101 0)
(10.8819 -0.238874 0)
(10.8411 -0.268075 0)
(10.7999 -0.287133 0)
(10.7642 -0.294026 0)
(10.7375 -0.292924 0)
(10.0537 -0.381841 0)
(10.2835 -0.707285 0)
(10.5359 -0.726126 0)
(10.6987 -0.591263 0)
(10.7683 -0.450431 0)
(10.7815 -0.37448 0)
(10.769 -0.335471 0)
(10.7553 -0.308828 0)
(10.7581 -0.282548 0)
(10.7815 -0.259887 0)
(10.8163 -0.244362 0)
(10.85 -0.237231 0)
(10.8745 -0.236804 0)
(10.8848 -0.240698 0)
(10.8814 -0.244757 0)
(10.8669 -0.247533 0)
(10.8442 -0.245348 0)
(10.8176 -0.242812 0)
(10.2809 -0.382655 0)
(10.4913 -0.754611 0)
(10.7422 -0.711548 0)
(10.88 -0.537145 0)
(10.9339 -0.427897 0)
(10.9456 -0.387124 0)
(10.9402 -0.362205 0)
(10.9098 -0.330929 0)
(10.8683 -0.29673 0)
(10.8198 -0.265898 0)
(10.7716 -0.245616 0)
(10.7151 -0.235013 0)
(10.6502 -0.232871 0)
(10.5707 -0.236939 0)
(10.4866 -0.243152 0)
(10.3955 -0.248105 0)
(10.3067 -0.248387 0)
(10.2168 -0.244503 0)
(10.237 -0.446486 0)
(10.6315 -0.88172 0)
(10.7659 -0.785347 0)
(10.7156 -0.556042 0)
(10.5234 -0.419792 0)
(10.2607 -0.360139 0)
(9.98359 -0.321552 0)
(9.72041 -0.280924 0)
(9.4809 -0.2429 0)
(9.2686 -0.208933 0)
(9.08007 -0.184261 0)
(8.90542 -0.164431 0)
(8.74605 -0.152803 0)
(8.58871 -0.144555 0)
(8.44655 -0.143689 0)
(8.301 -0.144344 0)
(8.17136 -0.146484 0)
(8.03465 -0.144835 0)
(10.1016 -0.815318 0)
(9.98183 -1.03726 0)
(9.31137 -0.794435 0)
(8.5838 -0.523102 0)
(7.9278 -0.336171 0)
(7.36429 -0.224412 0)
(6.89258 -0.156348 0)
(6.51095 -0.112207 0)
(6.20078 -0.0837574 0)
(5.95828 -0.065434 0)
(5.75528 -0.0555551 0)
(5.5889 -0.0497264 0)
(5.43783 -0.0497364 0)
(5.30314 -0.0504115 0)
(5.17426 -0.0574898 0)
(5.04561 -0.0590642 0)
(4.9285 -0.0670149 0)
(4.7947 -0.0645145 0)
(8.64414 -0.384726 0)
(6.17188 -0.350396 0)
(4.36037 -0.13001 0)
(3.29268 -0.0142571 0)
(2.72505 0.0258873 0)
(2.41445 0.033739 0)
(2.22477 0.0272495 0)
(2.09617 0.0188008 0)
(1.99833 0.0126041 0)
(1.92291 0.00807092 0)
(1.85804 0.00505992 0)
(1.8044 0.00344698 0)
(1.75085 0.00228699 0)
(1.70397 0.00118181 0)
(1.64774 -0.00108672 0)
(1.59807 -0.00114756 0)
(1.53173 -0.00930723 0)
(1.46399 0.00481728 0)
(-0.0579146 0.12878 0)
(-0.185605 0.135376 0)
(-0.313711 0.134451 0)
(-0.443689 0.133813 0)
(-0.573447 0.132771 0)
(-0.703919 0.131466 0)
(-0.83383 0.129918 3.44283e-20)
(-0.963573 0.128127 -3.41563e-20)
(-1.09255 0.126191 0)
(-1.22041 0.124054 -3.36125e-20)
(-1.34641 0.121591 0)
(-1.47037 0.118726 0)
(-1.59172 0.115427 0)
(-1.70944 0.111527 3.25401e-20)
(-1.82272 0.106882 0)
(-1.93054 0.101419 0)
(-2.03194 0.0950649 -3.17699e-20)
(-2.12551 0.0877061 0)
(-2.21039 0.079299 0)
(-2.28508 0.0699342 0)
(-2.34823 0.0595192 3.0831e-20)
(-2.39868 0.0482205 0)
(-2.43531 0.0359281 3.04143e-20)
(-2.45717 0.023055 0)
(-2.46317 0.00966877 0)
(-2.45241 -0.0039627 2.9868e-20)
(-2.42424 -0.0176886 0)
(-2.3788 -0.0313192 -2.95568e-20)
(-2.31603 -0.0445375 0)
(-2.23641 -0.0572393 2.92821e-20)
(-2.14062 -0.0690965 0)
(-2.02942 -0.0799588 0)
(-1.90396 -0.0896324 0)
(-1.76549 -0.0979946 0)
(-1.61546 -0.104928 0)
(-1.45541 -0.110362 -2.85706e-20)
(-1.28701 -0.114282 0)
(-1.1121 -0.116672 5.66601e-20)
(-0.932024 -0.117525 0)
(-0.748845 -0.117193 -5.6141e-20)
(-0.564714 -0.115442 0)
(-0.380397 -0.112391 0)
(-0.197386 -0.108407 5.52662e-20)
(-0.0178349 -0.103773 0)
(0.157608 -0.0982035 5.46131e-20)
(0.328445 -0.0920728 -5.42662e-20)
(0.493479 -0.0855213 0)
(0.651986 -0.0786785 -5.35347e-20)
(0.803384 -0.0716668 -5.31517e-20)
(0.947239 -0.0646013 0)
(1.08325 -0.0575823 0)
(1.21123 -0.0506911 0)
(1.33106 -0.0439949 0)
(1.44271 -0.0375559 0)
(1.54625 -0.0314316 5.06703e-20)
(1.64181 -0.0256633 0)
(1.72959 -0.0202729 -4.97952e-20)
(1.8098 -0.0152738 0)
(1.8827 -0.0106829 0)
(1.94861 -0.00651387 4.84593e-20)
(2.00786 -0.002763 0)
(2.06081 0.000585902 -4.75604e-20)
(2.1078 0.00354802 0)
(2.14921 0.00613082 0)
(2.18542 0.00835117 0)
(2.2168 0.0102385 4.57606e-20)
(2.2437 0.0118178 0)
(2.26649 0.0131183 0)
(2.28552 0.0141504 4.44202e-20)
(2.30112 0.0149496 0)
(2.31358 0.0155516 4.3535e-20)
(2.32324 0.0159461 0)
(2.33035 0.0161934 0)
(2.33516 0.0163333 0)
(2.33799 0.0162878 -4.17914e-20)
(2.33904 0.0160292 0)
(2.33847 0.015699 0)
(2.3365 0.0153479 -4.05106e-20)
(2.3333 0.0149805 -4.00892e-20)
(2.32903 0.0145985 0)
(2.3238 0.0142065 -3.92549e-20)
(2.31774 0.0138044 0)
(2.31096 0.0133895 -7.68643e-20)
(2.30354 0.0129784 0)
(2.29557 0.0125606 -7.52421e-20)
(2.28713 0.0121256 0)
(2.27827 0.0117289 7.36433e-20)
(2.26902 0.0113687 0)
(2.25945 0.0110171 0)
(2.24962 0.0106686 0)
(2.23958 0.0103212 -7.0515e-20)
(2.22937 0.00997887 0)
(2.21902 0.00964989 6.89853e-20)
(2.20856 0.00933322 0)
(2.19799 0.00902491 -6.74779e-20)
(2.18736 0.00872525 -6.67326e-20)
(2.17667 0.00843476 -6.59927e-20)
(2.16595 0.00815218 0)
(2.15521 0.00787964 0)
(2.14445 0.00761874 0)
(2.13368 0.00736881 0)
(2.12294 0.00712904 0)
(2.11221 0.00690008 0)
(2.1015 0.00668188 0)
(2.09083 0.00647234 0)
(2.08018 0.00626965 5.95726e-20)
(2.06958 0.00607425 5.88849e-20)
(2.05902 0.00588773 0)
(2.04851 0.00571028 0)
(2.03804 0.00553995 0)
(2.02762 0.00537442 5.61827e-20)
(2.01725 0.00521312 0)
(2.00693 0.00505768 0)
(1.99666 0.00490977 0)
(1.98645 0.00476894 0)
(1.9763 0.00463296 -5.29114e-20)
(1.96619 0.00449985 0)
(1.95614 0.00436937 0)
(1.94614 0.00424266 5.10031e-20)
(1.93621 0.00412091 -5.03758e-20)
(1.92633 0.0040042 0)
(1.9165 0.00389154 -4.91341e-20)
(1.90673 0.00378185 0)
(1.89702 0.00367456 4.79095e-20)
(1.88736 0.00356951 0)
(1.87776 0.00346683 0)
(1.86822 0.00336695 0)
(1.85873 0.0032705 0)
(1.8493 0.00317773 0)
(1.83992 0.00308814 -8.86677e-20)
(1.8306 0.00300053 -8.75036e-20)
(1.82133 0.00291377 0)
(1.81211 0.0028277 0)
(1.80295 0.00274326 0)
(1.79384 0.00266178 8.29243e-20)
(1.78478 0.00258381 0)
(1.77578 0.00250864 0)
(1.76683 0.00243475 0)
(1.75793 0.00236096 7.84639e-20)
(1.74908 0.00228734 -7.73668e-20)
(1.74028 0.00221519 0)
(1.73154 0.00214599 0)
(1.72285 0.00208002 -7.41178e-20)
(1.7142 0.00201618 -7.30485e-20)
(1.70561 0.0019531 0)
(1.69706 0.0018902 0)
(1.68856 0.00182787 6.9881e-20)
(1.68011 0.00176716 -6.88385e-20)
(1.67171 0.00170905 0)
(1.66335 0.00165386 0)
(1.65504 0.00160089 -6.57494e-20)
(1.64676 0.00154919 0)
(1.63852 0.00149846 0)
(1.63031 0.00144917 -6.27169e-20)
(1.62213 0.00140191 0)
(1.61398 0.00135722 -6.07259e-20)
(1.60585 0.00131633 0)
(1.59773 0.00127762 0)
(1.5896 0.00124636 0)
(1.58147 0.0012114 5.68153e-20)
(1.57325 0.00119893 0)
(1.5651 0.00115361 0)
(1.55659 0.00119709 0)
(1.54851 0.00108127 0)
(1.53914 0.0013124 0)
(1.53168 0.000923072 0)
(1.52 0.00167673 5.01953e-20)
(1.51466 0.000587539 4.92747e-20)
(1.49768 0.00236349 0)
(1.49708 0.000216852 0)
(1.47087 0.0031474 0)
(1.47636 0.000468097 -4.56505e-20)
(1.43891 0.00343813 0)
(1.4472 0.00213858 8.77646e-20)
(1.39858 0.00349807 -8.60225e-20)
(1.40159 0.0050597 -8.43094e-20)
(1.34279 0.00598303 8.261e-20)
(1.31434 0.00751745 -8.09603e-20)
(1.27427 0.0196911 7.93406e-20)
(1.07816 -0.00615555 0)
(-0.0545751 0.388184 0)
(-0.189871 0.4161 0)
(-0.320925 0.413189 -7.10019e-20)
(-0.455621 0.412821 0)
(-0.590321 0.410977 6.99272e-20)
(-0.726265 0.408398 6.93865e-20)
(-0.86236 0.404802 3.44083e-20)
(-0.998593 0.400123 3.41655e-20)
(-1.13427 0.394252 0)
(-1.26922 0.38705 3.36248e-20)
(-1.40236 0.378287 0)
(-1.53322 0.367647 0)
(-1.66105 0.355014 -6.55971e-20)
(-1.78478 0.33998 -3.25586e-20)
(-1.90332 0.322307 6.45416e-20)
(-2.01544 0.301821 6.40253e-20)
(-2.12017 0.278361 3.17921e-20)
(-2.21602 0.251726 0)
(-2.30189 0.221879 0)
(-2.37624 0.188998 0)
(-2.43751 0.153075 3.07736e-20)
(-2.48501 0.114436 0)
(-2.51736 0.0732121 -9.12311e-20)
(-2.53305 0.0302512 0)
(-2.53159 -0.0142829 0)
(-2.51204 -0.0595871 -2.98912e-20)
(-2.4739 -0.105023 0)
(-2.4172 -0.150042 2.95783e-20)
(-2.34191 -0.193754 5.8797e-20)
(-2.24865 -0.235706 -2.93018e-20)
(-2.13801 -0.275038 0)
(-2.01089 -0.311432 0)
(-1.86846 -0.344205 0)
(-1.71201 -0.373074 5.75964e-20)
(-1.543 -0.397687 5.73728e-20)
(-1.36303 -0.417867 2.8587e-20)
(-1.17376 -0.433612 0)
(-0.976941 -0.44492 -5.66926e-20)
(-0.774185 -0.451827 0)
(-0.56714 -0.454839 5.61744e-20)
(-0.357574 -0.454037 0)
(-0.146879 -0.449358 0)
(0.0632662 -0.441998 -5.53029e-20)
(0.271792 -0.432158 0)
(0.478069 -0.419803 -1.63962e-19)
(0.681012 -0.405555 5.43078e-20)
(0.879826 -0.389789 0)
(1.07385 -0.372841 5.35801e-20)
(1.26255 -0.355017 5.31991e-20)
(1.44548 -0.336595 0)
(1.62233 -0.317825 0)
(1.79285 -0.298919 0)
(1.95688 -0.280057 0)
(2.11428 -0.261396 0)
(2.265 -0.243076 -5.0729e-20)
(2.40902 -0.225213 -1.00592e-19)
(2.54639 -0.207901 4.98568e-20)
(2.67714 -0.19121 0)
(2.80137 -0.175203 -9.79415e-20)
(2.91917 -0.159935 4.85237e-20)
(3.0307 -0.145446 0)
(3.13611 -0.131749 4.76268e-20)
(3.23555 -0.118861 0)
(3.3292 -0.106781 0)
(3.41726 -0.0955152 9.25525e-20)
(3.49994 -0.0850549 -4.58283e-20)
(3.57743 -0.0753581 9.07577e-20)
(3.64992 -0.0664303 -8.98637e-20)
(3.71768 -0.0582228 -4.44876e-20)
(3.78084 -0.0507042 0)
(3.83971 -0.0438689 -4.36019e-20)
(3.89443 -0.0376325 0)
(3.94521 -0.0319923 0)
(3.99234 -0.0269146 0)
(4.03591 -0.0223311 -4.18542e-20)
(4.07611 -0.0182382 0)
(4.11321 -0.0145847 -8.1995e-20)
(4.14735 -0.0113169 1.21719e-19)
(4.17871 -0.00839524 4.01512e-20)
(4.20743 -0.00579881 0)
(4.23368 -0.0034803 3.93154e-20)
(4.25762 -0.00143684 0)
(4.2794 0.000372029 7.69821e-20)
(4.29916 0.00197288 0)
(4.31701 0.00336075 7.53568e-20)
(4.33311 0.00460817 -1.49104e-19)
(4.34758 0.00569561 -7.37549e-20)
(4.36049 0.00659554 0)
(4.37193 0.00735712 0)
(4.38201 0.00801713 0)
(4.39082 0.00858943 7.06207e-20)
(4.39847 0.00907101 0)
(4.40504 0.00946777 -6.90881e-20)
(4.41057 0.00981031 0)
(4.41515 0.0101072 2.02734e-19)
(4.41884 0.0103391 6.68314e-20)
(4.42171 0.0105291 6.60903e-20)
(4.42379 0.0106933 0)
(4.42515 0.0108233 0)
(4.42582 0.0109131 0)
(4.42587 0.0109706 0)
(4.42532 0.0110021 0)
(4.42422 0.0110122 1.23512e-19)
(4.42259 0.0110051 1.22104e-19)
(4.42048 0.0109826 0)
(4.41792 0.0109455 -5.96593e-20)
(4.41493 0.0108956 -5.89704e-20)
(4.41154 0.0108361 0)
(4.40778 0.010769 -1.15215e-19)
(4.40366 0.0106949 0)
(4.39921 0.0106135 5.62644e-20)
(4.39445 0.010525 0)
(4.38939 0.0104306 0)
(4.38407 0.0103325 -1.08569e-19)
(4.37848 0.0102323 0)
(4.37264 0.01013 5.29877e-20)
(4.36658 0.0100243 0)
(4.36029 0.00991498 0)
(4.35379 0.00980305 5.1077e-20)
(4.3471 0.00968997 5.04483e-20)
(4.34022 0.00957684 0)
(4.33317 0.00946362 -4.92053e-20)
(4.32594 0.00934955 0)
(4.31855 0.00923437 4.79789e-20)
(4.31101 0.00911847 9.47434e-20)
(4.30332 0.00900224 0)
(4.29549 0.00888604 0)
(4.28752 0.00877045 0)
(4.27942 0.00865614 0)
(4.2712 0.00854354 8.87955e-20)
(4.26286 0.00843232 2.62891e-19)
(4.25439 0.00832129 0)
(4.24581 0.00820933 0)
(4.23713 0.00809662 0)
(4.22833 0.00798477 -8.30443e-20)
(4.21943 0.00787553 0)
(4.21043 0.00776937 0)
(4.20133 0.00766492 1.59368e-19)
(4.19213 0.00755999 7.85788e-20)
(4.18283 0.00745333 7.74793e-20)
(4.17344 0.00734576 0)
(4.16396 0.00723995 0)
(4.15439 0.00713799 7.42259e-20)
(4.14473 0.00703941 -7.31561e-20)
(4.13497 0.00694212 0)
(4.12513 0.00684426 0)
(4.1152 0.00674551 -6.99835e-20)
(4.10519 0.00664727 2.0682e-19)
(4.09509 0.00655157 0)
(4.0849 0.0064604 0)
(4.07463 0.00637365 6.58464e-20)
(4.06426 0.00628979 0)
(4.0538 0.00620807 1.27633e-19)
(4.04325 0.00612903 -6.28107e-20)
(4.03259 0.00605398 0)
(4.02183 0.00598481 6.08163e-20)
(4.01096 0.00592503 1.19658e-19)
(3.99999 0.00587066 0)
(3.98884 0.00583916 0)
(3.97763 0.0057964 -5.69005e-20)
(3.96603 0.00582727 0)
(3.95476 0.00576075 1.09956e-19)
(3.9421 0.00596468 0)
(3.93159 0.00572251 0)
(3.91591 0.00643973 0)
(3.90901 0.00555233 0)
(3.88514 0.00761999 -5.02714e-20)
(3.88842 0.00504949 -4.93497e-20)
(3.8472 0.00991198 0)
(3.86869 0.00437037 0)
(3.80379 0.0132689 0)
(3.84048 0.00459734 4.57203e-20)
(3.76264 0.0177241 0)
(3.78961 0.00648 -8.78982e-20)
(3.72392 0.0261773 8.61519e-20)
(3.70945 0.00842804 8.44362e-20)
(3.6731 0.045197 8.27134e-20)
(3.58038 0.0127437 8.10781e-20)
(3.60105 0.0832134 7.94012e-20)
(3.33481 0.0387224 0)
(-0.0504325 0.64497 0)
(-0.189415 0.70186 0)
(-0.321709 0.697037 7.10022e-20)
(-0.458826 0.696129 7.04258e-20)
(-0.59644 0.693787 -6.99298e-20)
(-0.735453 0.690093 -6.93903e-20)
(-0.875139 0.68489 -4.9169e-23)
(-1.01545 0.678017 0)
(-1.15569 0.669122 0)
(-1.2955 0.657799 0)
(-1.43418 0.643761 0)
(-1.5711 0.626398 0)
(-1.70551 0.605415 1.96662e-19)
(-1.83642 0.580346 0)
(-1.96249 0.550596 -6.45535e-20)
(-2.08242 0.515962 -6.40371e-20)
(-2.19518 0.476134 0)
(-2.29915 0.43084 0)
(-2.39288 0.379926 0)
(-2.47465 0.323701 0)
(-2.54311 0.262163 -6.1638e-20)
(-2.59694 0.195893 0)
(-2.63435 0.125547 6.07983e-20)
(-2.65434 0.0518787 0)
(-2.65599 -0.024196 0)
(-2.63778 -0.101613 0)
(-2.59958 -0.179112 1.18464e-19)
(-2.54133 -0.255852 0)
(-2.46297 -0.330177 -5.8802e-20)
(-2.36533 -0.401311 1.16832e-19)
(-2.24921 -0.468048 0)
(-2.11566 -0.529578 0)
(-1.96596 -0.584973 0)
(-1.80177 -0.633692 -5.76013e-20)
(-1.6247 -0.675152 -5.73778e-20)
(-1.43669 -0.70912 0)
(-1.23959 -0.73554 0)
(-1.03524 -0.754508 1.133e-19)
(-0.825439 -0.766287 1.12818e-19)
(-0.61214 -0.771272 -1.1231e-19)
(-0.396694 -0.769798 0)
(-0.1812 -0.762988 0)
(0.0326672 -0.751157 0)
(0.244699 -0.735175 0)
(0.453861 -0.715603 1.09328e-19)
(0.659168 -0.693106 1.08637e-19)
(0.859967 -0.668299 -1.07925e-19)
(1.05574 -0.641736 0)
(1.24608 -0.613916 0)
(1.43068 -0.585271 0)
(1.60934 -0.556173 0)
(1.78196 -0.526936 1.04029e-19)
(1.94845 -0.497828 0)
(2.10879 -0.469077 0)
(2.26297 -0.440871 1.01493e-19)
(2.41107 -0.413366 1.00629e-19)
(2.55317 -0.386681 0)
(2.68936 -0.360915 -1.97732e-19)
(2.81973 -0.336144 9.7983e-20)
(2.94441 -0.312428 -9.70907e-20)
(3.06355 -0.289808 0)
(3.1773 -0.268308 0)
(3.2858 -0.247935 0)
(3.38918 -0.228694 0)
(3.48762 -0.21057 -9.26012e-20)
(3.58128 -0.193551 -1.83395e-19)
(3.67031 -0.177607 -9.08082e-20)
(3.75488 -0.162698 8.99149e-20)
(3.83513 -0.148805 0)
(3.91123 -0.135862 -1.76264e-19)
(3.98335 -0.123846 -1.74498e-19)
(4.05162 -0.112714 -1.7274e-19)
(4.11621 -0.102394 1.70991e-19)
(4.17728 -0.0928681 0)
(4.23495 -0.0841018 2.51287e-19)
(4.28937 -0.0759886 0)
(4.34071 -0.068504 -8.20425e-20)
(4.3891 -0.0616251 -8.12002e-20)
(4.43467 -0.055288 0)
(4.47755 -0.0494719 0)
(4.51788 -0.0441179 -1.57364e-19)
(4.55577 -0.0392072 0)
(4.59137 -0.0347032 -1.54068e-19)
(4.62477 -0.0305486 0)
(4.65612 -0.0267588 1.50817e-19)
(4.68553 -0.023268 2.98423e-19)
(4.713 -0.0200893 0)
(4.73872 -0.0172382 0)
(4.76282 -0.0146424 0)
(4.78536 -0.0122581 1.42894e-19)
(4.80641 -0.010076 0)
(4.82604 -0.00808828 1.39805e-19)
(4.84435 -0.00627444 0)
(4.86144 -0.0046194 0)
(4.87734 -0.00311879 -2.70513e-19)
(4.89212 -0.00174782 0)
(4.90587 -0.000506006 -1.32278e-19)
(4.91865 0.000613879 0)
(4.93049 0.00164501 -1.29344e-19)
(4.94146 0.00258684 0)
(4.95161 0.00344053 0)
(4.96099 0.00421287 0)
(4.96966 0.00491189 -3.70813e-19)
(4.97766 0.00554491 -1.22196e-19)
(4.98501 0.00611632 0)
(4.99177 0.00662953 0)
(4.99797 0.00708923 0)
(5.00364 0.00750091 0)
(5.00882 0.00786924 1.15302e-19)
(5.01354 0.00819796 -2.27904e-19)
(5.01782 0.00849004 -1.12613e-19)
(5.02168 0.00874799 2.22565e-19)
(5.02517 0.00897448 2.19923e-19)
(5.0283 0.00917259 1.08651e-19)
(5.03109 0.00934544 0)
(5.03357 0.00949484 2.1211e-19)
(5.03574 0.00962184 0)
(5.03763 0.00972816 -2.06992e-19)
(5.03926 0.009816 -1.0223e-19)
(5.04064 0.00988757 0)
(5.04179 0.00994475 1.99448e-19)
(5.04272 0.00998848 9.84842e-20)
(5.04344 0.0100191 0)
(5.04397 0.0100375 9.60293e-20)
(5.04431 0.0100451 -2.84444e-19)
(5.04448 0.0100432 0)
(5.04449 0.0100331 0)
(5.04434 0.0100157 0)
(5.04404 0.00999182 0)
(5.0436 0.00996225 -1.77726e-19)
(5.04302 0.00992727 -1.75393e-19)
(5.04232 0.00988663 0)
(5.04149 0.00984014 0)
(5.04055 0.00978855 0)
(5.03949 0.00973368 0)
(5.03833 0.00967732 0)
(5.03706 0.00961994 0)
(5.03569 0.00956041 -1.59489e-19)
(5.03422 0.00949702 -2.34143e-26)
(5.03266 0.00942907 0)
(5.031 0.00935793 0)
(5.02925 0.00928657 -1.50723e-19)
(5.02741 0.00921716 0)
(5.02548 0.00914902 1.46423e-19)
(5.02347 0.00907993 1.44294e-19)
(5.02136 0.00900822 0)
(5.01917 0.00893417 0)
(5.01689 0.00885988 -1.37986e-19)
(5.01453 0.00878799 -2.71819e-19)
(5.01208 0.00872044 0)
(5.00954 0.00865696 0)
(5.0069 0.00859576 0)
(5.00417 0.00853652 -1.27731e-19)
(5.00134 0.00848056 1.25718e-19)
(4.99841 0.00842985 0)
(4.99537 0.00838817 2.43456e-19)
(4.99223 0.0083573 1.19751e-19)
(4.98895 0.00834169 -2.35571e-19)
(4.98553 0.00833794 0)
(4.98202 0.00837017 0)
(4.97817 0.00839171 -2.2392e-19)
(4.97455 0.00852557 -1.10042e-19)
(4.96975 0.00855757 0)
(4.96673 0.00885723 0)
(4.9593 0.00901961 0)
(4.9593 0.0091902 0)
(4.94495 0.0105394 -2.01241e-19)
(4.95324 0.00862743 0)
(4.92484 0.0149783 0)
(4.94708 0.0056845 0)
(4.90123 0.0240524 0)
(4.9319 0.0015034 0)
(4.88203 0.0354126 0)
(4.89522 0.00269119 -1.759e-19)
(4.86732 0.0461584 0)
(4.8354 0.0121757 0)
(4.83899 0.0666811 -3.31103e-19)
(4.75145 0.0302663 1.62159e-19)
(4.78051 0.109203 -1.58975e-19)
(4.61535 0.0899848 1.55591e-19)
(-0.0440285 0.890281 0)
(-0.186201 0.987447 -1.42865e-19)
(-0.323301 0.980133 0)
(-0.464012 0.985367 -7.04258e-20)
(-0.603228 0.983237 0)
(-0.746359 0.980475 0)
(-0.889544 0.975418 6.86583e-20)
(-1.03418 0.967473 0)
(-1.17975 0.956446 0)
(-1.32589 0.941958 0)
(-1.47185 0.923521 0)
(-1.61694 0.900296 0)
(-1.76008 0.8719 -2.61874e-19)
(-1.90083 0.837262 -1.29718e-19)
(-2.0374 0.796218 1.28628e-19)
(-2.16832 0.747446 0)
(-2.29238 0.691012 0)
(-2.40785 0.626247 0)
(-2.51282 0.553034 0)
(-2.60528 0.471586 0)
(-2.68344 0.38204 -1.22552e-19)
(-2.74524 0.285439 -1.21664e-19)
(-2.7892 0.182479 1.20824e-19)
(-2.81356 0.0745624 -1.20036e-19)
(-2.8172 -0.0368725 0)
(-2.79857 -0.150292 0)
(-2.75769 -0.263704 -1.1846e-19)
(-2.69414 -0.375351 0)
(-2.60815 -0.48385 0)
(-2.50093 -0.587087 -1.16828e-19)
(-2.37322 -0.683781 -1.16014e-19)
(-2.22657 -0.772743 -1.15602e-19)
(-2.06248 -0.852343 0)
(-1.88305 -0.922195 0)
(-1.69015 -0.981203 1.14435e-19)
(-1.48629 -1.02921 0)
(-1.27366 -1.06599 0)
(-1.05449 -1.092 -1.13298e-19)
(-0.830811 -1.10757 1.12658e-19)
(-0.604432 -1.11319 -1.12188e-19)
(-0.378042 -1.11008 0)
(-0.152974 -1.09934 0)
(0.069493 -1.08154 -2.21159e-19)
(0.28812 -1.05809 0)
(0.502638 -1.02987 -2.18618e-19)
(0.711982 -0.997829 -3.25893e-19)
(0.915615 -0.962838 3.23763e-19)
(1.11315 -0.925664 -2.14366e-19)
(1.30432 -0.886979 0)
(1.48896 -0.847355 0)
(1.66699 -0.807272 -2.09687e-19)
(1.83841 -0.767135 -1.04032e-19)
(2.00325 -0.727284 0)
(2.16156 -0.687999 0)
(2.31342 -0.6495 -1.01497e-19)
(2.45897 -0.611966 -2.01245e-19)
(2.59838 -0.575546 0)
(2.73176 -0.540357 1.97744e-19)
(2.85928 -0.506488 -1.95952e-19)
(2.98111 -0.473999 1.94167e-19)
(3.09743 -0.44293 0)
(3.20844 -0.413308 0)
(3.31429 -0.385147 0)
(3.41517 -0.358439 0)
(3.51126 -0.333165 0)
(3.60274 -0.309304 1.83416e-19)
(3.68978 -0.286821 0)
(3.77255 -0.26568 0)
(3.85122 -0.245831 0)
(3.92595 -0.227223 3.52563e-19)
(3.9969 -0.209811 1.74524e-19)
(4.06422 -0.193544 1.72767e-19)
(4.12805 -0.178355 -3.42025e-19)
(4.18856 -0.164205 1.69268e-19)
(4.24588 -0.151025 -1.6755e-19)
(4.30014 -0.138755 0)
(4.35146 -0.127351 1.64123e-19)
(4.40001 -0.116761 0)
(4.44589 -0.106942 0)
(4.48922 -0.0978265 0)
(4.53013 -0.089389 3.14786e-19)
(4.56874 -0.0815633 -1.55737e-19)
(4.60516 -0.0743141 -1.54089e-19)
(4.63949 -0.067611 -3.0493e-19)
(4.67184 -0.0613925 -4.52546e-19)
(4.70229 -0.0556787 -1.49245e-19)
(4.73092 -0.0504073 0)
(4.75789 -0.0455019 -2.92122e-19)
(4.7833 -0.0409602 0)
(4.8072 -0.0367675 -4.28786e-19)
(4.82963 -0.0328974 0)
(4.85069 -0.029331 -4.19522e-19)
(4.87048 -0.0260335 0)
(4.88903 -0.0229906 0)