/*--------------------------------*- C++ -*----------------------------------*\
| =========                 |                                                 |
| \\      /  F ield         | OpenFOAM: The Open Source CFD Toolbox           |
|  \\    /   O peration     | Version:  2.1.x                                 |
|   \\  /    A nd           | Web:      www.OpenFOAM.org                      |
|    \\/     M anipulation  |                                                 |
\*---------------------------------------------------------------------------*/
FoamFile
{
    version     2.0;
    format      ascii;
    class       volVectorField;
    location    "0.006";
    object      UMean;
}
// * * * * * * * * * * * * * * * * * * * * * * * * * * * * * * * * * * * * * //

dimensions      [0 1 -1 0 0 0 0];

internalField   nonuniform List<vector> 
12225
(
(7.11024 0.392075 0)
(4.64141 0.182161 0)
(3.36587 0.0256877 0)
(2.79905 -0.0132434 0)
(2.57054 -0.0149773 0)
(2.52401 -0.0106469 0)
(2.48887 -0.00606101 0)
(2.5431 -0.00588994 0)
(2.53702 -0.00534769 0)
(2.63429 -0.00691227 0)
(2.65328 -0.00989027 0)
(2.78992 -0.00824045 0)
(2.87236 -0.0175885 0)
(3.00727 -0.0095815 0)
(3.30146 -0.0412745 0)
(3.30376 0.00951002 0)
(4.1559 -0.198311 0)
(4.07042 0.039154 0)
(9.68634 0.923828 0)
(9.07948 0.773408 0)
(8.06466 0.389267 0)
(7.2447 0.181697 0)
(6.66086 0.0754261 0)
(6.43234 0.0245018 0)
(6.20256 -0.00130189 0)
(6.26071 -0.0125642 0)
(6.13536 -0.0201412 0)
(6.32436 -0.0352782 0)
(6.2627 -0.0332968 0)
(6.52543 -0.0749604 0)
(6.57192 -0.045978 0)
(6.86471 -0.146673 0)
(7.10367 -0.0879163 0)
(7.44352 -0.264278 0)
(7.96225 -0.320419 0)
(8.51769 -0.596295 0)
(9.96892 0.757172 0)
(10.6143 0.832686 0)
(10.4538 0.510786 0)
(10.0732 0.318053 0)
(9.58797 0.197874 0)
(9.34374 0.117555 0)
(9.05964 0.0542615 0)
(9.02497 0.0128154 0)
(8.88436 -0.0163378 0)
(8.96713 -0.0530189 0)
(8.93927 -0.0710316 0)
(9.09662 -0.119832 0)
(9.17643 -0.138887 0)
(9.40263 -0.210686 0)
(9.59791 -0.255573 0)
(9.92183 -0.38818 0)
(10.2401 -0.54452 0)
(10.6705 -0.947361 0)
(9.86048 0.561169 0)
(10.7051 0.746799 0)
(11.0076 0.511985 0)
(11.0271 0.353646 0)
(10.8894 0.252064 0)
(10.7816 0.171561 0)
(10.6878 0.108619 0)
(10.6246 0.0461806 0)
(10.6114 0.00910443 0)
(10.5901 -0.0477718 0)
(10.6456 -0.078334 0)
(10.6731 -0.138668 0)
(10.7955 -0.182625 0)
(10.8798 -0.256923 0)
(11.072 -0.351299 0)
(11.2212 -0.480574 0)
(11.4695 -0.708313 0)
(11.6444 -1.01719 0)
(9.83577 0.443493 0)
(10.5231 0.628955 0)
(10.8908 0.479204 0)
(11.0434 0.314024 0)
(11.0572 0.241628 0)
(11.0684 0.150394 0)
(11.0674 0.115766 0)
(11.0959 0.030458 0)
(11.1225 0.010126 0)
(11.1663 -0.0734215 0)
(11.215 -0.0920211 0)
(11.2803 -0.179688 0)
(11.3612 -0.218255 0)
(11.4585 -0.330669 0)
(11.5793 -0.420968 0)
(11.7076 -0.598093 0)
(11.8574 -0.805956 0)
(11.9444 -1.09812 0)
(9.86619 0.338342 0)
(10.3695 0.529904 0)
(10.7021 0.434582 0)
(10.8554 0.293712 0)
(10.924 0.207105 0)
(10.9518 0.141255 0)
(10.9929 0.0872616 0)
(11.0348 0.0309273 0)
(11.0932 -0.0242807 0)
(11.1488 -0.0810076 0)
(11.2152 -0.137568 0)
(11.2829 -0.202997 0)
(11.3646 -0.279224 0)
(11.453 -0.378143 0)
(11.5529 -0.501401 0)
(11.6526 -0.668905 0)
(11.7376 -0.869869 0)
(11.7886 -1.1286 0)
(9.82601 0.235269 0)
(10.2162 0.403225 0)
(10.4949 0.374161 0)
(10.6399 0.242725 0)
(10.7238 0.170262 0)
(10.7607 0.0966276 0)
(10.8065 0.0586155 0)
(10.8508 -0.00634891 0)
(10.9113 -0.0508255 0)
(10.9667 -0.118911 0)
(11.0337 -0.172302 0)
(11.0993 -0.250108 0)
(11.1773 -0.327657 0)
(11.2554 -0.438287 0)
(11.3395 -0.564826 0)
(11.411 -0.728907 0)
(11.471 -0.921237 0)
(11.5016 -1.14952 0)
(9.86038 0.200991 0)
(10.1841 0.354269 0)
(10.4102 0.337511 0)
(10.5447 0.243018 0)
(10.6312 0.15575 0)
(10.6803 0.0890556 0)
(10.7299 0.035752 0)
(10.7797 -0.0181189 0)
(10.8387 -0.0749801 0)
(10.8949 -0.136943 0)
(10.9586 -0.202501 0)
(11.0209 -0.278677 0)
(11.0906 -0.367217 0)
(11.1581 -0.476038 0)
(11.2259 -0.606371 0)
(11.2819 -0.764061 0)
(11.3263 -0.942616 0)
(11.3399 -1.13757 0)
(9.83392 0.138673 0)
(10.1182 0.274821 0)
(10.3098 0.279249 0)
(10.4327 0.205785 0)
(10.5211 0.126297 0)
(10.5777 0.0548511 0)
(10.6312 0.00499349 0)
(10.6808 -0.0489798 0)
(10.7377 -0.102575 0)
(10.7913 -0.1662 0)
(10.8507 -0.233304 0)
(10.9075 -0.314962 0)
(10.969 -0.405846 0)
(11.0254 -0.517866 0)
(11.0816 -0.646107 0)
(11.1247 -0.797722 0)
(11.1529 -0.963058 0)
(11.1519 -1.14352 0)
(9.85509 0.113067 0)
(10.0931 0.221306 0)
(10.2497 0.233945 0)
(10.3571 0.181267 0)
(10.4396 0.108949 0)
(10.4963 0.0367538 0)
(10.5469 -0.0193972 0)
(10.5906 -0.0742152 0)
(10.642 -0.128291 0)
(10.6914 -0.192065 0)
(10.748 -0.261011 0)
(10.8006 -0.34423 0)
(10.8569 -0.437474 0)
(10.9053 -0.54894 0)
(10.9517 -0.674151 0)
(10.9817 -0.817505 0)
(10.9993 -0.970536 0)
(10.992 -1.13479 0)
(9.94002 0.0849208 0)
(10.1416 0.165111 0)
(10.2571 0.183351 0)
(10.341 0.143538 0)
(10.4136 0.0829763 0)
(10.4708 0.0151937 0)
(10.52 -0.0441857 0)
(10.5619 -0.101291 0)
(10.6053 -0.158266 0)
(10.6484 -0.22363 0)
(10.6948 -0.296248 0)
(10.7404 -0.381181 0)
(10.7856 -0.476215 0)
(10.8244 -0.584858 0)
(10.8574 -0.70529 0)
(10.8771 -0.838156 0)
(10.8829 -0.978629 0)
(10.8697 -1.12564 0)
(9.82922 0.0596941 0)
(10.0213 0.119989 0)
(10.125 0.134568 0)
(10.2001 0.102545 0)
(10.2703 0.0509967 0)
(10.3289 -0.0120352 0)
(10.3815 -0.0722155 0)
(10.4243 -0.132191 0)
(10.4655 -0.19199 0)
(10.505 -0.258654 0)
(10.5457 -0.331562 0)
(10.5847 -0.415928 0)
(10.6205 -0.509118 0)
(10.6499 -0.613642 0)
(10.6716 -0.726095 0)
(10.6817 -0.848038 0)
(10.6781 -0.975464 0)
(10.6591 -1.10643 0)
(9.87863 0.0466663 0)
(10.0405 0.07409 0)
(10.1164 0.0785952 0)
(10.169 0.0541675 0)
(10.224 0.0138891 0)
(10.2747 -0.0392438 0)
(10.325 -0.0960884 0)
(10.3672 -0.158543 0)
(10.4075 -0.221923 0)
(10.4421 -0.291759 0)
(10.4757 -0.365672 0)
(10.5039 -0.448818 0)
(10.5298 -0.537998 0)
(10.5476 -0.636086 0)
(10.5595 -0.739565 0)
(10.5604 -0.85071 0)
(10.5509 -0.964235 0)
(10.5265 -1.07799 0)
(9.87452 0.0339634 0)
(10.0315 0.0448675 0)
(10.093 0.0395292 0)
(10.1294 0.0126209 0)
(10.1722 -0.0255684 0)
(10.2184 -0.0782801 0)
(10.2682 -0.134129 0)
(10.312 -0.197227 0)
(10.3508 -0.259677 0)
(10.3805 -0.328445 0)
(10.4046 -0.399014 0)
(10.4209 -0.478007 0)
(10.4331 -0.560909 0)
(10.4376 -0.651794 0)
(10.4375 -0.744682 0)
(10.4285 -0.843695 0)
(10.4109 -0.94393 0)
(10.3804 -1.04769 0)
(9.91958 0.0175798 0)
(10.0733 0.0128703 0)
(10.1286 -0.00122306 0)
(10.1596 -0.0304003 0)
(10.1911 -0.0662615 0)
(10.2239 -0.114494 0)
(10.2591 -0.165442 0)
(10.2911 -0.224375 0)
(10.3191 -0.283635 0)
(10.34 -0.349269 0)
(10.354 -0.41602 0)
(10.3606 -0.489732 0)
(10.3616 -0.56533 0)
(10.3564 -0.647713 0)
(10.3456 -0.731026 0)
(10.3281 -0.819399 0)
(10.3023 -0.906907 0)
(10.2653 -0.997293 0)
(9.83799 0.00139989 0)
(9.98794 -0.0176156 0)
(10.0375 -0.0381961 0)
(10.0583 -0.069155 0)
(10.0791 -0.104198 0)
(10.1042 -0.14886 0)
(10.1335 -0.196442 0)
(10.1608 -0.251519 0)
(10.1834 -0.307852 0)
(10.1979 -0.369367 0)
(10.2045 -0.43136 0)
(10.2033 -0.497812 0)
(10.1956 -0.564799 0)
(10.1821 -0.636553 0)
(10.1626 -0.708502 0)
(10.1368 -0.782337 0)
(10.1041 -0.853581 0)
(10.0638 -0.932684 0)
(9.82119 -0.0233403 0)
(9.96572 -0.0498417 0)
(10.0098 -0.0755405 0)
(10.0221 -0.110244 0)
(10.0358 -0.146459 0)
(10.0508 -0.188628 0)
(10.0717 -0.230483 0)
(10.0889 -0.277568 0)
(10.1039 -0.325102 0)
(10.1097 -0.377609 0)
(10.1101 -0.430378 0)
(10.101 -0.487745 0)
(10.0878 -0.545352 0)
(10.0672 -0.606969 0)
(10.0435 -0.667405 0)
(10.0127 -0.731441 0)
(9.97821 -0.795419 0)
(9.93534 -0.85541 0)
(9.85231 -0.0222498 0)
(9.98558 -0.066312 0)
(10.02 -0.0989367 0)
(10.0294 -0.133044 0)
(10.0458 -0.165796 0)
(10.0655 -0.203133 0)
(10.0881 -0.24155 0)
(10.104 -0.284965 0)
(10.1154 -0.328234 0)
(10.1183 -0.374382 0)
(10.116 -0.418986 0)
(10.1047 -0.465994 0)
(10.0887 -0.511937 0)
(10.0656 -0.560937 0)
(10.0398 -0.609312 0)
(10.0071 -0.659633 0)
(9.96976 -0.70661 0)
(9.92361 -0.756623 0)
(9.85206 -0.0264103 0)
(9.99687 -0.0904223 0)
(10.037 -0.141222 0)
(10.0532 -0.18313 0)
(10.0752 -0.21494 0)
(10.0994 -0.244893 0)
(10.1208 -0.272698 0)
(10.1337 -0.303886 0)
(10.1385 -0.335361 0)
(10.1337 -0.370822 0)
(10.1219 -0.406071 0)
(10.1018 -0.443852 0)
(10.0766 -0.480259 0)
(10.0461 -0.518512 0)
(10.0133 -0.555105 0)
(9.97562 -0.593324 0)
(9.93426 -0.630288 0)
(9.88653 -0.667768 0)
(9.8358 -0.0429652 0)
(9.99181 -0.112892 0)
(10.0384 -0.168959 0)
(10.0554 -0.211099 0)
(10.0748 -0.239679 0)
(10.096 -0.262792 0)
(10.1169 -0.280814 0)
(10.1289 -0.300807 0)
(10.1324 -0.32143 0)
(10.1247 -0.346968 0)
(10.1095 -0.373565 0)
(10.0853 -0.403069 0)
(10.0563 -0.4313 0)
(10.022 -0.460771 0)
(9.98618 -0.488672 0)
(9.94676 -0.517865 0)
(9.90469 -0.545345 0)
(9.85638 -0.573977 0)
(9.89412 -0.066724 0)
(10.0458 -0.146996 0)
(10.0994 -0.208077 0)
(10.1262 -0.250695 0)
(10.1524 -0.27543 0)
(10.1759 -0.291329 0)
(10.1946 -0.300714 0)
(10.2017 -0.310555 0)
(10.1986 -0.320985 0)
(10.1841 -0.336138 0)
(10.1629 -0.353116 0)
(10.1346 -0.373534 0)
(10.1025 -0.393761 0)
(10.0657 -0.415525 0)
(10.0275 -0.436294 0)
(9.98541 -0.45842 0)
(9.94083 -0.479652 0)
(9.89077 -0.501844 0)
(9.85385 -0.0657099 0)
(10.0235 -0.172461 0)
(10.0967 -0.247548 0)
(10.1417 -0.286275 0)
(10.179 -0.295789 0)
(10.2051 -0.29462 0)
(10.2207 -0.290391 0)
(10.2216 -0.291658 0)
(10.2118 -0.297241 0)
(10.1918 -0.308331 0)
(10.1672 -0.32069 0)
(10.1373 -0.335374 0)
(10.1055 -0.34906 0)
(10.0693 -0.363638 0)
(10.0317 -0.377135 0)
(9.98966 -0.392219 0)
(9.94519 -0.406913 0)
(9.89465 -0.423362 0)
(9.96139 -0.102958 0)
(10.1502 -0.241214 0)
(10.2454 -0.315046 0)
(10.3127 -0.336426 0)
(10.3648 -0.328775 0)
(10.3975 -0.313204 0)
(10.4126 -0.299427 0)
(10.4091 -0.29434 0)
(10.3932 -0.294409 0)
(10.3671 -0.299206 0)
(10.3362 -0.304911 0)
(10.3003 -0.312801 0)
(10.2627 -0.320309 0)
(10.2212 -0.329191 0)
(10.1781 -0.337572 0)
(10.1305 -0.347624 0)
(10.0802 -0.357389 0)
(10.024 -0.36875 0)
(9.87762 -0.115024 0)
(10.1084 -0.294176 0)
(10.2437 -0.366844 0)
(10.3407 -0.368299 0)
(10.4071 -0.339474 0)
(10.4415 -0.306619 0)
(10.4489 -0.283317 0)
(10.4358 -0.27182 0)
(10.412 -0.266356 0)
(10.3812 -0.265284 0)
(10.3474 -0.265302 0)
(10.3107 -0.267076 0)
(10.2726 -0.26893 0)
(10.2312 -0.272144 0)
(10.1874 -0.27531 0)
(10.1391 -0.280088 0)
(10.0874 -0.284973 0)
(10.0302 -0.291456 0)
(9.88567 -0.191412 0)
(10.1737 -0.398737 0)
(10.3644 -0.45488 0)
(10.4922 -0.428762 0)
(10.5653 -0.373359 0)
(10.5926 -0.324783 0)
(10.5889 -0.29217 0)
(10.5679 -0.272369 0)
(10.5386 -0.259934 0)
(10.5036 -0.252889 0)
(10.4653 -0.248401 0)
(10.4234 -0.246304 0)
(10.3798 -0.245008 0)
(10.3331 -0.24506 0)
(10.2847 -0.24519 0)
(10.2327 -0.246122 0)
(10.1782 -0.246825 0)
(10.1189 -0.248259 0)
(9.80193 -0.252036 0)
(10.1629 -0.496346 0)
(10.4255 -0.526791 0)
(10.5908 -0.46107 0)
(10.6734 -0.381068 0)
(10.6961 -0.322202 0)
(10.6866 -0.28255 0)
(10.6621 -0.254872 0)
(10.63 -0.23508 0)
(10.5925 -0.220955 0)
(10.5503 -0.210663 0)
(10.5041 -0.203511 0)
(10.4542 -0.198444 0)
(10.4011 -0.195294 0)
(10.3449 -0.19284 0)
(10.2857 -0.191027 0)
(10.223 -0.188712 0)
(10.1563 -0.18648 0)
(9.87184 -0.337775 0)
(10.3528 -0.621255 0)
(10.6848 -0.613782 0)
(10.8477 -0.50377 0)
(10.8868 -0.409177 0)
(10.8513 -0.342239 0)
(10.7843 -0.29354 0)
(10.7027 -0.255451 0)
(10.6182 -0.227152 0)
(10.5305 -0.205415 0)
(10.4443 -0.190034 0)
(10.3564 -0.17811 0)
(10.2708 -0.169753 0)
(10.1841 -0.162881 0)
(10.0999 -0.15755 0)
(10.0147 -0.152199 0)
(9.93072 -0.14652 0)
(9.84374 -0.139733 0)
(9.87061 -0.448081 0)
(10.4768 -0.775037 0)
(10.7053 -0.678868 0)
(10.6518 -0.504098 0)
(10.4549 -0.376505 0)
(10.2157 -0.289712 0)
(9.9844 -0.229674 0)
(9.77159 -0.185255 0)
(9.58369 -0.154327 0)
(9.41301 -0.130428 0)
(9.2639 -0.114772 0)
(9.12426 -0.101692 0)
(9.00219 -0.093979 0)
(8.88301 -0.086243 0)
(8.77957 -0.0821697 0)
(8.67404 -0.0763286 0)
(8.58307 -0.071774 0)
(8.4848 -0.0629794 0)
(9.91609 -0.695188 0)
(9.95768 -0.927898 0)
(9.43376 -0.708638 0)
(8.75212 -0.471368 0)
(8.13318 -0.296291 0)
(7.64747 -0.179161 0)
(7.28458 -0.108771 0)
(7.01304 -0.0690861 0)
(6.80715 -0.0482845 0)
(6.64449 -0.0363503 0)
(6.51626 -0.0311075 0)
(6.40494 -0.026979 0)
(6.31595 -0.026763 0)
(6.22855 -0.0245289 0)
(6.16232 -0.0262944 0)
(6.08557 -0.0238741 0)
(6.03652 -0.0262548 0)
(5.95906 -0.0214185 0)
(8.52197 -0.392248 0)
(6.34047 -0.345529 0)
(4.71017 -0.127931 0)
(3.7342 -0.015531 0)
(3.22365 0.0236322 0)
(2.96738 0.0317469 0)
(2.83572 0.0269509 0)
(2.76199 0.0191936 0)
(2.71363 0.0126852 0)
(2.67711 0.00828662 0)
(2.64619 0.00550501 0)
(2.61815 0.00387003 0)
(2.59245 0.00269548 0)
(2.56629 0.00250106 0)
(2.54455 0.000853155 0)
(2.51561 0.00297989 0)
(2.5003 -0.00593982 0)
(2.44881 0.0100811 0)
(-0.0125355 0.0228132 0)
(-0.0299687 0.0170216 0)
(-0.0431002 0.0151661 0)
(-0.0564002 0.0140191 0)
(-0.0681314 0.012615 0)
(-0.0787364 0.0109142 0)
(-0.0873998 0.00892313 3.51774e-20)
(-0.0939884 0.00659214 -3.49281e-20)
(-0.0980999 0.00397008 0)
(-0.0994226 0.00109013 -3.44382e-20)
(-0.09748 -0.00203894 0)
(-0.0917963 -0.00545596 0)
(-0.0822985 -0.00913376 0)
(-0.0685432 -0.0130149 3.34947e-20)
(-0.0502202 -0.0171104 0)
(-0.026864 -0.021367 0)
(0.00166848 -0.0258091 -3.28198e-20)
(0.0356294 -0.0302946 0)
(0.0752585 -0.0349037 0)
(0.120596 -0.039466 0)
(0.171794 -0.0440187 3.19627e-20)
(0.228944 -0.0484203 0)
(0.292053 -0.0526477 3.15503e-20)
(0.360819 -0.0567015 0)
(0.43514 -0.0604328 0)
(0.514716 -0.0637882 3.0947e-20)
(0.599272 -0.0667357 0)
(0.688338 -0.0692753 -3.05511e-20)
(0.781388 -0.071316 0)
(0.877967 -0.0728491 3.01566e-20)
(0.977475 -0.0738701 0)
(1.07935 -0.0743721 0)
(1.18301 -0.0743502 0)
(1.28788 -0.0738229 0)
(1.39337 -0.072822 0)
(1.49889 -0.0713793 -2.89533e-20)
(1.60392 -0.0695277 0)
(1.70792 -0.0673061 5.70777e-20)
(1.81044 -0.0647472 0)
(1.91101 -0.0619391 -5.62321e-20)
(2.00916 -0.0588858 0)
(2.10467 -0.0556362 0)
(2.1972 -0.0522611 5.49334e-20)
(2.28645 -0.0487928 0)
(2.37224 -0.0452691 5.40498e-20)
(2.45444 -0.0417304 -5.36036e-20)
(2.53289 -0.0382142 0)
(2.6075 -0.0347539 -5.27042e-20)
(2.67823 -0.0313746 -5.22516e-20)
(2.74507 -0.0280968 0)
(2.80803 -0.0249411 0)
(2.86716 -0.0219257 0)
(2.9225 -0.0190628 0)
(2.97414 -0.0163589 0)
(3.0222 -0.0138195 4.95184e-20)
(3.06677 -0.0114499 0)
(3.10799 -0.00925222 -4.8608e-20)
(3.14597 -0.00722406 0)
(3.18086 -0.00536116 0)
(3.21282 -0.00365946 4.72499e-20)
(3.24197 -0.0021146 0)
(3.26847 -0.000720147 -4.63518e-20)
(3.29247 0.000532551 0)
(3.3141 0.00165257 0)
(3.33353 0.0026484 0)
(3.35087 0.00352755 4.45787e-20)
(3.36626 0.00429874 0)
(3.37983 0.00497195 0)
(3.39172 0.00555618 4.32723e-20)
(3.40204 0.00606042 0)
(3.41089 0.00648779 4.24137e-20)
(3.4184 0.00684365 0)
(3.42466 0.00713205 0)
(3.42977 0.00734393 0)
(3.43381 0.00748182 -4.0728e-20)
(3.43686 0.00756909 0)
(3.439 0.00762639 0)
(3.44031 0.00766107 -3.94922e-20)
(3.44085 0.00767576 -3.90858e-20)
(3.44068 0.00767162 0)
(3.43985 0.00765174 -3.82812e-20)
(3.43842 0.00761809 0)
(3.43644 0.00757493 -7.49754e-20)
(3.43394 0.0075239 0)
(3.43097 0.0074669 -7.34103e-20)
(3.42754 0.00740985 0)
(3.4237 0.00735575 7.18672e-20)
(3.41947 0.00729977 0)
(3.4149 0.0072394 0)
(3.41 0.00717421 0)
(3.4048 0.00710488 -6.88457e-20)
(3.39932 0.00703299 0)
(3.39358 0.00695965 6.73669e-20)
(3.3876 0.00688483 0)
(3.3814 0.0068086 -6.59091e-20)
(3.37499 0.00673128 -6.51879e-20)
(3.36839 0.00665327 -6.44718e-20)
(3.36161 0.00657535 0)
(3.35466 0.00649839 0)
(3.34755 0.00642261 0)
(3.3403 0.00634781 0)
(3.33291 0.00627382 0)
(3.3254 0.00620056 0)
(3.31776 0.00612796 0)
(3.31001 0.00605615 0)
(3.30216 0.00598553 5.82509e-20)
(3.29421 0.0059164 5.75837e-20)
(3.28616 0.00584851 0)
(3.27803 0.0057812 0)
(3.26981 0.005714 0)
(3.26152 0.00564718 5.49616e-20)
(3.25316 0.00558154 0)
(3.24473 0.00551764 0)
(3.23623 0.00545527 0)
(3.22768 0.00539358 0)
(3.21906 0.00533191 -5.17849e-20)
(3.21039 0.0052703 0)
(3.20167 0.00520941 0)
(3.1929 0.0051499 4.99309e-20)
(3.18409 0.00509193 -4.93214e-20)
(3.17523 0.00503503 0)
(3.16633 0.00497854 -4.81147e-20)
(3.15739 0.00492194 0)
(3.1484 0.0048652 4.69242e-20)
(3.13939 0.0048087 0)
(3.13034 0.00475308 0)
(3.12127 0.00469882 0)
(3.11216 0.004646 0)
(3.10302 0.00459411 0)
(3.09385 0.00454238 -8.68951e-20)
(3.08465 0.00449024 -8.5763e-20)
(3.07542 0.00443774 0)
(3.06617 0.00438558 0)
(3.0569 0.00433458 0)
(3.04761 0.00428509 8.13087e-20)
(3.03829 0.00423663 0)
(3.02894 0.0041883 0)
(3.01957 0.00413938 0)
(3.01018 0.00408995 7.69693e-20)
(3.00077 0.00404074 -7.59018e-20)
(2.99134 0.00399252 0)
(2.98189 0.00394555 0)
(2.97243 0.0038994 -7.27401e-20)
(2.96294 0.00385337 -7.16996e-20)
(2.95343 0.003807 0)
(2.9439 0.0037604 0)
(2.93435 0.00371411 6.86169e-20)
(2.92479 0.00366872 -6.76021e-20)
(2.9152 0.00362455 0)
(2.9056 0.00358131 0)
(2.89598 0.00353852 -6.45952e-20)
(2.88633 0.00349593 0)
(2.87665 0.0034536 0)
(2.86695 0.00341173 -6.16432e-20)
(2.85723 0.00337064 0)
(2.84747 0.00333095 -5.97048e-20)
(2.83768 0.00329294 0)
(2.82785 0.00325685 0)
(2.81797 0.00322316 0)
(2.80803 0.0031911 5.58972e-20)
(2.79801 0.00316301 0)
(2.78791 0.00313505 0)
(2.77769 0.00311854 0)
(2.76737 0.00309189 0)
(2.75678 0.00310703 0)
(2.74619 0.00306154 0)
(2.73489 0.00316495 4.94508e-20)
(2.72406 0.00303276 4.85531e-20)
(2.71122 0.00335318 0)
(2.70051 0.00301124 0)
(2.6844 0.00373376 0)
(2.67451 0.00312136 -4.50256e-20)
(2.65214 0.00431273 0)
(2.64335 0.00374734 8.66155e-20)
(2.61062 0.00518241 -8.49223e-20)
(2.59974 0.00541392 -8.32672e-20)
(2.55295 0.00804762 8.16297e-20)
(2.5191 0.00749947 -8.00559e-20)
(2.4695 0.0270319 7.85206e-20)
(2.29062 0.00832873 0)
(-0.0134389 0.0681736 0)
(-0.031449 0.0483736 0)
(-0.0450449 0.0422465 -7.23768e-20)
(-0.0586552 0.0388484 0)
(-0.0708351 0.0346277 7.13406e-20)
(-0.0817855 0.0294519 7.0831e-20)
(-0.0908774 0.0232552 3.51464e-20)
(-0.0978631 0.0159854 3.49313e-20)
(-0.102135 0.00771121 0)
(-0.103437 -0.00161218 3.44414e-20)
(-0.101362 -0.0118603 0)
(-0.0953604 -0.0230886 0)
(-0.0851438 -0.0352414 -6.74271e-20)
(-0.0702806 -0.0481993 -3.3498e-20)
(-0.0504295 -0.0619389 6.65099e-20)
(-0.0251129 -0.0763339 6.60609e-20)
(0.00598948 -0.0913214 3.28232e-20)
(0.0430581 -0.106641 0)
(0.0863909 -0.1223 0)
(0.136119 -0.13801 0)
(0.192367 -0.153682 3.19431e-20)
(0.255332 -0.169014 0)
(0.324758 -0.183952 -9.4642e-20)
(0.40058 -0.198272 0)
(0.482814 -0.211688 0)
(0.570951 -0.224074 -3.09509e-20)
(0.664653 -0.235235 0)
(0.763548 -0.245123 3.05551e-20)
(0.867164 -0.25355 6.07073e-20)
(0.974934 -0.260493 -3.01607e-20)
(1.08627 -0.265846 0)
(1.20062 -0.269644 0)
(1.31741 -0.271884 0)
(1.43604 -0.272608 5.87283e-20)
(1.55592 -0.271882 5.83246e-20)
(1.67651 -0.269783 2.89581e-20)
(1.79727 -0.266421 0)
(1.91768 -0.261902 -5.70875e-20)
(2.03727 -0.256323 0)
(2.1556 -0.249848 5.62422e-20)
(2.27229 -0.242573 0)
(2.38699 -0.234603 0)
(2.4994 -0.226108 -5.4944e-20)
(2.60926 -0.217175 0)
(2.71636 -0.207913 -1.62187e-19)
(2.82052 -0.198431 5.36148e-20)
(2.92158 -0.188823 0)
(3.01943 -0.17917 5.27156e-20)
(3.11399 -0.169546 5.22631e-20)
(3.2052 -0.160016 0)
(3.29303 -0.150641 0)
(3.37747 -0.141467 0)
(3.45852 -0.132533 0)
(3.53621 -0.123869 0)
(3.61057 -0.115506 -4.95304e-20)
(3.68166 -0.107467 -9.8149e-20)
(3.74952 -0.0997649 4.86201e-20)
(3.81422 -0.0924081 0)
(3.87586 -0.0854032 -9.54252e-20)
(3.93449 -0.0787563 4.72601e-20)
(3.9902 -0.0724683 0)
(4.04308 -0.0665335 4.63639e-20)
(4.09323 -0.060944 0)
(4.14074 -0.0556927 0)
(4.1857 -0.0507734 9.00591e-20)
(4.2282 -0.0461747 -4.45906e-20)
(4.26834 -0.0418827 8.8303e-20)
(4.30622 -0.0378838 -8.74319e-20)
(4.34193 -0.034163 -4.32841e-20)
(4.37556 -0.0307115 0)
(4.40721 -0.0275146 -4.24254e-20)
(4.43696 -0.0245585 0)
(4.4649 -0.0218323 0)
(4.49112 -0.0193209 0)
(4.51568 -0.0170141 -4.07373e-20)
(4.53869 -0.014896 0)
(4.56022 -0.0129493 -7.98233e-20)
(4.58034 -0.0111575 1.18508e-19)
(4.59912 -0.00951017 3.90969e-20)
(4.61662 -0.00799596 0)
(4.63292 -0.00660487 3.82921e-20)
(4.64808 -0.00532769 0)
(4.66216 -0.00415386 7.49968e-20)
(4.67523 -0.00307939 0)
(4.68733 -0.00209785 7.34314e-20)
(4.69852 -0.00120439 -1.45311e-19)
(4.70883 -0.000396009 -7.18879e-20)
(4.71832 0.000339048 0)
(4.72704 0.00101158 0)
(4.73502 0.00162668 0)
(4.74232 0.0021875 6.88658e-20)
(4.74896 0.00269864 0)
(4.75499 0.00316655 -6.73866e-20)
(4.76044 0.00359563 0)
(4.76535 0.00398688 1.97783e-19)
(4.76973 0.00434296 6.52071e-20)
(4.77363 0.00466755 6.44909e-20)
(4.77706 0.00496267 0)
(4.78006 0.00523007 0)
(4.78266 0.00547186 0)
(4.78486 0.00569 0)
(4.7867 0.00588641 0)
(4.78818 0.00606335 1.20596e-19)
(4.78934 0.00622273 1.19233e-19)
(4.7902 0.00636579 0)
(4.79077 0.00649343 -5.82686e-20)
(4.79106 0.00660673 -5.76013e-20)
(4.79108 0.00670685 0)
(4.79086 0.00679487 -1.1256e-19)
(4.7904 0.00687161 0)
(4.78973 0.0069379 5.49774e-20)
(4.78884 0.00699472 0)
(4.78776 0.0070431 0)
(4.78649 0.00708373 -1.06117e-19)
(4.78504 0.00711685 0)
(4.78342 0.00714251 5.18014e-20)
(4.78163 0.00716122 0)
(4.7797 0.00717406 0)
(4.77762 0.0071822 4.9946e-20)
(4.7754 0.00718629 4.93373e-20)
(4.77305 0.00718624 0)
(4.77057 0.00718151 -4.81294e-20)
(4.76796 0.00717183 0)
(4.76524 0.00715762 4.69388e-20)
(4.7624 0.00713979 9.26999e-20)
(4.75947 0.00711943 0)
(4.75643 0.00709732 0)
(4.75329 0.00707372 0)
(4.75005 0.00704837 0)
(4.74672 0.00702077 8.69247e-20)
(4.7433 0.00699051 2.57376e-19)
(4.73979 0.00695769 0)
(4.73619 0.00692304 0)
(4.73252 0.00688765 0)
(4.72877 0.00685222 -8.13373e-20)
(4.72494 0.00681666 0)
(4.72102 0.00678015 0)
(4.71703 0.00674181 1.56142e-19)
(4.71296 0.00670144 7.69958e-20)
(4.70882 0.00665971 7.59294e-20)
(4.70461 0.00661779 0)
(4.70033 0.00657653 0)
(4.69598 0.00653581 7.27672e-20)
(4.69155 0.00649471 -7.17253e-20)
(4.68705 0.00645244 0)
(4.68248 0.00640898 0)
(4.67785 0.00636515 -6.86432e-20)
(4.67314 0.00632206 2.02884e-19)
(4.66836 0.00628059 0)
(4.66351 0.0062409 0)
(4.65858 0.00620234 6.46209e-20)
(4.65358 0.00616438 0)
(4.6485 0.00612709 1.25292e-19)
(4.64334 0.00609116 -6.16674e-20)
(4.63809 0.00605762 0)
(4.63276 0.00602783 5.97296e-20)
(4.62733 0.00600311 1.17537e-19)
(4.62181 0.0059847 0)
(4.61616 0.00597478 0)
(4.6104 0.00597304 -5.59213e-20)
(4.60448 0.00598625 0)
(4.59843 0.00600653 1.08101e-19)
(4.5921 0.00606322 0)
(4.58575 0.00610659 0)
(4.57868 0.00626281 0)
(4.57223 0.00629859 0)
(4.56349 0.00670757 -4.94739e-20)
(4.55776 0.00658999 -4.8576e-20)
(4.54515 0.00764924 0)
(4.54213 0.00696302 0)
(4.5218 0.00956132 0)
(4.52362 0.00745411 4.50479e-20)
(4.492 0.0133463 0)
(4.49653 0.00819911 -8.66595e-20)
(4.4547 0.0212278 8.49659e-20)
(4.44866 0.00925467 8.33106e-20)
(4.4053 0.0395763 8.1647e-20)
(4.35511 0.0130181 8.00983e-20)
(4.32973 0.090026 7.84646e-20)
(4.15955 0.0549385 0)
(-0.0147088 0.118575 0)
(-0.0362145 0.084834 0)
(-0.0524982 0.074242 7.23768e-20)
(-0.0690091 0.06862 7.17961e-20)
(-0.0840919 0.0616662 -7.13407e-20)
(-0.0979551 0.053018 -7.0831e-20)
(-0.109997 0.0426074 -5.83523e-23)
(-0.119853 0.0303911 0)
(-0.127079 0.0164561 0)
(-0.131215 0.00070149 0)
(-0.131764 -0.0167271 0)
(-0.128352 -0.0358291 0)
(-0.120522 -0.0565248 2.02173e-19)
(-0.107852 -0.0786716 0)
(-0.0899868 -0.102179 -6.65099e-20)
(-0.0663544 -0.126824 -6.60609e-20)
(-0.0365799 -0.152526 0)
(-0.000483963 -0.178904 0)
(0.0421984 -0.205765 0)
(0.0917019 -0.232836 0)
(0.148198 -0.25977 -6.39094e-20)
(0.211714 -0.286275 0)
(0.282131 -0.311976 6.30882e-20)
(0.359517 -0.336544 0)
(0.443628 -0.359576 0)
(0.533983 -0.380945 0)
(0.630224 -0.400131 1.2294e-19)
(0.731832 -0.417101 0)
(0.838292 -0.431597 -6.07077e-20)
(0.949019 -0.443507 1.20603e-19)
(1.06334 -0.452763 0)
(1.18057 -0.459376 0)
(1.30014 -0.463377 0)
(1.4214 -0.464847 -5.8729e-20)
(1.54375 -0.463903 -5.83253e-20)
(1.66658 -0.460693 0)
(1.78935 -0.455402 0)
(1.91158 -0.448209 1.14185e-19)
(2.03278 -0.439314 1.13346e-19)
(2.15252 -0.428935 -1.12498e-19)
(2.27043 -0.417267 0)
(2.3862 -0.404545 0)
(2.49955 -0.390951 0)
(2.61028 -0.376679 0)
(2.71817 -0.361906 1.08129e-19)
(2.8231 -0.346796 1.07241e-19)
(2.92496 -0.331493 -1.06343e-19)
(3.02365 -0.316129 0)
(3.11912 -0.300822 0)
(3.21135 -0.28567 0)
(3.30033 -0.270757 0)
(3.38608 -0.256151 1.01802e-19)
(3.46862 -0.241909 0)
(3.54797 -0.228084 0)
(3.6242 -0.214714 9.90629e-20)
(3.69736 -0.201823 9.81528e-20)
(3.76752 -0.189431 0)
(3.83473 -0.177552 -1.92665e-19)
(3.89908 -0.166197 9.54292e-20)
(3.96063 -0.155371 -9.45263e-20)
(4.01946 -0.145068 0)
(4.07567 -0.135283 0)
(4.12931 -0.126007 0)
(4.18049 -0.117233 0)
(4.22928 -0.108948 -9.00635e-20)
(4.27575 -0.101135 -1.7836e-19)
(4.32 -0.0937758 -8.83075e-20)
(4.3621 -0.0868536 8.74364e-20)
(4.40214 -0.0803535 0)
(4.44018 -0.074257 -1.71412e-19)
(4.47631 -0.068546 -1.697e-19)
(4.51061 -0.063196 -1.67999e-19)
(4.54315 -0.0581883 1.66307e-19)
(4.574 -0.0535034 0)
(4.60323 -0.0491215 2.44439e-19)
(4.63092 -0.0450244 0)
(4.65713 -0.0411999 -7.98231e-20)
(4.68192 -0.0376298 -7.90096e-20)
(4.70537 -0.034299 0)
(4.72752 -0.0311919 0)
(4.74845 -0.0282938 -1.5317e-19)
(4.76821 -0.0255933 0)
(4.78686 -0.0230778 -1.49996e-19)
(4.80444 -0.0207404 0)
(4.82102 -0.0185735 1.46866e-19)
(4.83663 -0.0165671 2.90638e-19)
(4.85133 -0.0147147 0)
(4.86517 -0.0129993 0)
(4.87821 -0.0114058 0)
(4.89046 -0.00992581 1.39231e-19)
(4.90197 -0.00855273 0)
(4.91279 -0.0072789 1.36252e-19)
(4.92295 -0.00609629 0)
(4.93248 -0.00499902 0)
(4.94142 -0.00398192 -2.63726e-19)
(4.9498 -0.00304007 0)
(4.95765 -0.00216821 -1.28987e-19)
(4.965 -0.00136039 0)
(4.97188 -0.000611999 -1.26153e-19)
(4.97832 7.98814e-05 0)
(4.98434 0.000718578 0)
(4.98996 0.00130803 0)
(4.9952 0.00185234 -3.61812e-19)
(5.00009 0.00235484 -1.19242e-19)
(5.00466 0.00281783 0)
(5.00891 0.00324321 0)
(5.01287 0.00363312 0)
(5.01655 0.00399028 0)
(5.01997 0.00431757 1.12569e-19)
(5.02314 0.00461758 -2.22522e-19)
(5.02608 0.00489221 -1.09965e-19)
(5.02882 0.00514284 2.1735e-19)
(5.03134 0.00537069 2.1479e-19)
(5.03368 0.00557708 1.06126e-19)
(5.03584 0.00576346 0)
(5.03782 0.00593145 2.07218e-19)
(5.03965 0.00608284 0)
(5.04133 0.0062194 -2.02256e-19)
(5.04287 0.00634248 -9.99014e-20)
(5.04428 0.00645281 0)
(5.04557 0.00655053 1.9494e-19)
(5.04674 0.00663576 9.6268e-20)
(5.0478 0.00670922 0)
(5.04876 0.00677239 9.38848e-20)
(5.04962 0.00682701 -2.78122e-19)
(5.0504 0.00687441 0)
(5.05109 0.00691518 0)
(5.05171 0.00694924 0)
(5.05225 0.0069764 0)
(5.05271 0.00699673 -1.73862e-19)
(5.05311 0.00701079 -1.71599e-19)
(5.05345 0.00701963 0)
(5.05373 0.00702441 0)
(5.05395 0.00702604 0)
(5.05412 0.00702482 0)
(5.05424 0.00702038 0)
(5.05431 0.00701213 0)
(5.05433 0.00699987 -1.56157e-19)
(5.05431 0.00698417 -1.43416e-24)
(5.05424 0.0069662 0)
(5.05414 0.00694717 0)
(5.05399 0.00692758 -1.47642e-19)
(5.05381 0.00690689 0)
(5.05359 0.00688404 1.43467e-19)
(5.05332 0.00685852 1.41397e-19)
(5.05302 0.00683104 0)
(5.05269 0.00680313 0)
(5.05232 0.00677625 -1.35271e-19)
(5.05192 0.00675119 -2.66504e-19)
(5.05148 0.00672786 0)
(5.05101 0.00670545 0)
(5.05049 0.00668334 0)
(5.04993 0.00666214 -1.25307e-19)
(5.04932 0.00664336 1.2335e-19)
(5.04867 0.00662884 0)
(5.04798 0.00662054 2.38943e-19)
(5.04722 0.00662025 1.17549e-19)
(5.04641 0.00663016 -2.31281e-19)
(5.04552 0.00665218 0)
(5.04455 0.00669079 0)
(5.04348 0.00674587 -2.19958e-19)
(5.0423 0.00683299 -1.08116e-19)
(5.04093 0.0069378 0)
(5.0395 0.00711185 0)
(5.0376 0.00729839 0)
(5.03599 0.00760161 0)
(5.03291 0.00799691 -1.97917e-19)
(5.03152 0.00832884 0)
(5.02585 0.00949079 0)
(5.02558 0.0091402 0)
(5.01509 0.0128077 0)
(5.01638 0.00980357 0)
(4.99953 0.019514 0)
(4.99918 0.0109674 -1.73313e-19)
(4.97768 0.0315615 0)
(4.96555 0.015735 0)
(4.94374 0.0544865 -3.26646e-19)
(4.90333 0.0338545 1.60062e-19)
(4.88431 0.10975 -1.57055e-19)
(4.7994 0.107053 1.53754e-19)
(-0.0163576 0.176289 0)
(-0.0429251 0.128985 -1.45511e-19)
(-0.0634081 0.113055 0)
(-0.084256 0.105549 -7.17961e-20)
(-0.103602 0.0957979 0)
(-0.121814 0.0836632 0)
(-0.138128 0.0689603 7.00997e-20)
(-0.152154 0.0516421 0)
(-0.163425 0.0317139 0)
(-0.171532 0.00919303 0)
(-0.175883 -0.0158218 0)
(-0.176073 -0.0433853 0)
(-0.171493 -0.0732325 -2.69333e-19)
(-0.161748 -0.105309 -1.33668e-19)
(-0.146318 -0.139425 1.32762e-19)
(-0.124762 -0.17521 0)
(-0.096535 -0.212593 0)
(-0.0612232 -0.251094 0)
(-0.0187676 -0.290397 0)
(0.0312349 -0.329997 0)
(0.0889029 -0.369463 -1.27612e-19)
(0.154446 -0.408298 -1.26798e-19)
(0.227671 -0.445904 1.25996e-19)
(0.308514 -0.481803 -1.25203e-19)
(0.396611 -0.515506 0)
(0.491617 -0.546542 0)
(0.593026 -0.574522 -1.2294e-19)
(0.700034 -0.599013 0)
(0.812207 -0.619909 0)
(0.928704 -0.636938 -1.20603e-19)
(1.04871 -0.650121 -1.19787e-19)
(1.17153 -0.659439 -1.1901e-19)
(1.29647 -0.664965 0)
(1.42279 -0.666876 0)
(1.54982 -0.665343 1.16639e-19)
(1.67693 -0.660603 0)
(1.80354 -0.652893 0)
(1.92915 -0.642544 -1.14185e-19)
(2.05325 -0.62984 1.13356e-19)
(2.17545 -0.615072 -1.12511e-19)
(2.29534 -0.598566 0)
(2.41265 -0.580626 0)
(2.52716 -0.561517 -2.1982e-19)
(2.63864 -0.541523 0)
(2.74697 -0.520885 -2.16283e-19)
(2.85203 -0.499824 -3.21737e-19)
(2.95374 -0.478543 3.19041e-19)
(3.05205 -0.457222 -2.10891e-19)
(3.14694 -0.436013 0)
(3.23844 -0.415037 0)
(3.32656 -0.394403 -2.05434e-19)
(3.41134 -0.374206 -1.01802e-19)
(3.49282 -0.354522 0)
(3.57106 -0.335404 0)
(3.64615 -0.316896 -9.90634e-20)
(3.71815 -0.299031 -1.96301e-19)
(3.78714 -0.281838 0)
(3.85319 -0.265334 1.92666e-19)
(3.91639 -0.249525 -1.9085e-19)
(3.97684 -0.234411 1.89043e-19)
(4.03461 -0.219989 0)
(4.08979 -0.206256 0)
(4.14247 -0.1932 0)
(4.19273 -0.180808 0)
(4.24066 -0.16906 0)
(4.28634 -0.157936 1.78361e-19)
(4.32986 -0.147417 0)
(4.3713 -0.137484 0)
(4.41073 -0.128115 0)
(4.44823 -0.119284 3.42821e-19)
(4.48389 -0.110968 1.69702e-19)
(4.51777 -0.103143 1.68e-19)
(4.54995 -0.0957849 -3.32613e-19)
(4.58049 -0.0888735 1.64623e-19)
(4.60947 -0.0823842 -1.62959e-19)
(4.63696 -0.0762969 0)
(4.66301 -0.0705888 1.59653e-19)
(4.6877 -0.065241 0)
(4.71108 -0.0602317 0)
(4.7332 -0.0555424 0)
(4.75414 -0.0511546 3.0634e-19)
(4.77393 -0.0470505 -1.51575e-19)
(4.79265 -0.0432165 -1.4999e-19)
(4.81033 -0.0396354 -2.96847e-19)
(4.82703 -0.0362919 -4.40597e-19)
(4.84279 -0.0331686 -1.45319e-19)
(4.85767 -0.030246 0)