/*--------------------------------*- C++ -*----------------------------------*\
| =========                 |                                                 |
| \\      /  F ield         | OpenFOAM: The Open Source CFD Toolbox           |
|  \\    /   O peration     | Version:  2.1.x                                 |
|   \\  /    A nd           | Web:      www.OpenFOAM.org                      |
|    \\/     M anipulation  |                                                 |
\*---------------------------------------------------------------------------*/
FoamFile
{
    version     2.0;
    format      ascii;
    class       volSymmTensorField;
    location    "0.006";
    object      UPrime2Mean;
}
// * * * * * * * * * * * * * * * * * * * * * * * * * * * * * * * * * * * * * //

dimensions      [0 2 -2 0 0 0 0];

internalField   nonuniform List<symmTensor> 
12225
(
(0.1371 0.00370338 0 0.00416572 0 0)
(0.985502 -0.0186685 0 0.000921429 0 0)
(1.45202 -0.00605613 0 7.96908e-05 0 0)
(1.75671 -0.00237574 0 1.70859e-05 0 0)
(2.02367 -0.00205127 0 2.31607e-05 0 0)
(2.18981 -0.00263304 0 3.62317e-05 0 0)
(2.35082 -0.00478988 0 8.64762e-05 0 0)
(2.44926 -0.00639387 0 0.000165527 0 0)
(2.58852 -0.00757311 0 0.000263692 0 0)
(2.74206 -0.0107518 0 0.000378754 0 0)
(2.8696 -0.0117689 0 0.000517385 0 0)
(3.15904 -0.0159366 0 0.000729583 0 0)
(3.32249 -0.0287594 0 0.00117531 0 0)
(3.80454 -0.00192731 0 0.00164866 0 0)
(4.50544 -0.16639 0 0.0109384 0 0)
(5.10637 0.243875 0 0.0308057 0 0)
(9.05199 -1.41615 0 0.332746 0 0)
(12.9415 0.970231 0 0.183071 0 0)
(0.339409 0.0818214 0 0.0337079 0 0)
(0.274328 -0.0435946 0 0.0271924 0 0)
(0.507398 -0.0540498 0 0.00976927 0 0)
(0.757635 -0.0504885 0 0.00435086 0 0)
(1.14749 -0.0470488 0 0.00265678 0 0)
(1.46664 -0.0388555 0 0.00182889 0 0)
(1.86448 -0.0372184 0 0.00233493 0 0)
(2.13039 -0.0335896 0 0.00208528 0 0)
(2.29863 -0.0434645 0 0.00275861 0 0)
(2.89875 -0.0474014 0 0.00369188 0 0)
(2.64708 -0.0592444 0 0.00477112 0 0)
(3.87569 -0.113199 0 0.0105675 0 0)
(3.26671 -0.0678316 0 0.0129683 0 0)
(5.19587 -0.298895 0 0.0393614 0 0)
(4.82325 -0.117609 0 0.0477266 0 0)
(7.70127 -0.744777 0 0.159221 0 0)
(8.84755 -0.964486 0 0.202838 0 0)
(13.7885 -2.74026 0 0.851847 0 0)
(0.408826 0.0742771 0 0.0218899 0 0)
(0.197185 0.0140796 0 0.0346794 0 0)
(0.211312 -0.000802586 0 0.0201815 0 0)
(0.209097 -0.0123425 0 0.014695 0 0)
(0.282128 -0.0331625 0 0.0126668 0 0)
(0.384315 -0.0399317 0 0.0102995 0 0)
(0.604631 -0.0624074 0 0.0142524 0 0)
(0.749166 -0.0588702 0 0.0121966 0 0)
(0.986447 -0.0850378 0 0.0156711 0 0)
(1.27669 -0.0940071 0 0.0227773 0 0)
(1.45203 -0.130323 0 0.0336651 0 0)
(1.90037 -0.181341 0 0.0552423 0 0)
(2.1271 -0.23355 0 0.0832679 0 0)
(2.75882 -0.350808 0 0.123106 0 0)
(3.21449 -0.459679 0 0.181441 0 0)
(4.30107 -0.804344 0 0.309861 0 0)
(4.97686 -1.14111 0 0.430056 0 0)
(6.85406 -2.79598 0 1.8263 0 0)
(0.411503 0.0529459 0 0.0154073 0 0)
(0.227716 0.0166812 0 0.033239 0 0)
(0.240346 0.0248345 0 0.0230366 0 0)
(0.261283 0.0304019 0 0.0186237 0 0)
(0.263746 0.0170839 0 0.0217202 0 0)
(0.249566 0.0030489 0 0.0266127 0 0)
(0.243434 -0.0185472 0 0.036545 0 0)
(0.251533 -0.0292876 0 0.0355878 0 0)
(0.308885 -0.0591677 0 0.0453176 0 0)
(0.362305 -0.0811501 0 0.0575584 0 0)
(0.490614 -0.118667 0 0.0770575 0 0)
(0.571453 -0.149473 0 0.104225 0 0)
(0.784232 -0.207451 0 0.138832 0 0)
(0.927228 -0.258175 0 0.181808 0 0)
(1.27778 -0.415103 0 0.292223 0 0)
(1.4655 -0.497034 0 0.357536 0 0)
(1.90677 -0.946767 0 0.743253 0 0)
(2.18365 -1.42008 0 1.38244 0 0)
(0.393143 0.0480915 0 0.0123094 0 0)
(0.208318 0.00897379 0 0.026362 0 0)
(0.229419 0.0197127 0 0.0267436 0 0)
(0.26391 0.0289207 0 0.0265887 0 0)
(0.276738 0.0301752 0 0.0342282 0 0)
(0.275047 0.0203517 0 0.0407776 0 0)
(0.26788 0.0160619 0 0.046912 0 0)
(0.262856 0.00323006 0 0.0594901 0 0)
(0.269954 -0.0144477 0 0.0566476 0 0)
(0.268468 -0.025581 0 0.0764772 0 0)
(0.275283 -0.0416611 0 0.0820742 0 0)
(0.307915 -0.0682519 0 0.115401 0 0)
(0.360031 -0.0976209 0 0.140535 0 0)
(0.439554 -0.169573 0 0.217357 0 0)
(0.534161 -0.223506 0 0.265685 0 0)
(0.66146 -0.379801 0 0.47709 0 0)
(0.818039 -0.586769 0 0.757526 0 0)
(0.921142 -0.883491 0 1.4193 0 0)
(0.386376 0.0335777 0 0.00878398 0 0)
(0.192408 0.0005932 0 0.0218592 0 0)
(0.208894 0.00718861 0 0.0251425 0 0)
(0.231418 0.0221132 0 0.0202623 0 0)
(0.250432 0.0227367 0 0.0221753 0 0)
(0.251044 0.0208289 0 0.026242 0 0)
(0.244586 0.0194689 0 0.0357368 0 0)
(0.248828 0.00820523 0 0.035258 0 0)
(0.246762 0.0036658 0 0.0468067 0 0)
(0.240037 -0.00442791 0 0.0548823 0 0)
(0.242095 -0.0151189 0 0.0749126 0 0)
(0.25606 -0.0301541 0 0.099469 0 0)
(0.278591 -0.0608081 0 0.143145 0 0)
(0.307544 -0.0943747 0 0.191582 0 0)
(0.363957 -0.16574 0 0.301511 0 0)
(0.44184 -0.277597 0 0.469616 0 0)
(0.535752 -0.440442 0 0.75302 0 0)
(0.619208 -0.636269 0 1.42846 0 0)
(0.391094 0.031148 0 0.00766128 0 0)
(0.192107 0.00162638 0 0.0156874 0 0)
(0.199166 0.00536981 0 0.0206316 0 0)
(0.209181 0.01591 0 0.0222023 0 0)
(0.217904 0.0196335 0 0.0246491 0 0)
(0.216322 0.0147137 0 0.0293163 0 0)
(0.215502 0.0116551 0 0.0325971 0 0)
(0.217954 0.0106779 0 0.0418726 0 0)
(0.2175 0.00131957 0 0.0432749 0 0)
(0.216597 -0.0043009 0 0.0584754 0 0)
(0.222312 -0.0115743 0 0.0673048 0 0)
(0.234897 -0.0271552 0 0.0912824 0 0)
(0.258787 -0.0529158 0 0.11934 0 0)
(0.283834 -0.0901431 0 0.182071 0 0)
(0.329543 -0.147472 0 0.260076 0 0)
(0.376852 -0.224186 0 0.416495 0 0)
(0.426726 -0.328292 0 0.707522 0 0)
(0.453773 -0.434989 0 1.24877 0 0)
(0.421962 0.0303417 0 0.00856648 0 0)
(0.19774 -0.000674342 0 0.0139539 0 0)
(0.202527 0.00485069 0 0.0200356 0 0)
(0.212417 0.0140168 0 0.0193741 0 0)
(0.223117 0.0137115 0 0.0182872 0 0)
(0.219988 0.0114878 0 0.0204701 0 0)
(0.214059 0.0111405 0 0.0235606 0 0)
(0.213245 0.00659786 0 0.0260746 0 0)
(0.2161 -0.000835864 0 0.0337585 0 0)
(0.216293 -0.00658225 0 0.0456394 0 0)
(0.219156 -0.0172674 0 0.0592929 0 0)
(0.229109 -0.030423 0 0.0828007 0 0)
(0.247508 -0.0544317 0 0.116851 0 0)
(0.265449 -0.0866287 0 0.174026 0 0)
(0.295323 -0.133158 0 0.262521 0 0)
(0.320933 -0.188998 0 0.419023 0 0)
(0.34955 -0.260772 0 0.647912 0 0)
(0.379221 -0.315554 0 1.04192 0 0)
(0.375126 0.0209595 0 0.00834833 0 0)
(0.193768 -0.00411864 0 0.0136554 0 0)
(0.199346 -0.00213179 0 0.017901 0 0)
(0.200339 0.00512454 0 0.0210182 0 0)
(0.204892 0.00791118 0 0.0205007 0 0)
(0.202028 0.00538093 0 0.0212531 0 0)
(0.198707 0.00325231 0 0.024421 0 0)
(0.199033 0.00096361 0 0.0303725 0 0)
(0.203868 -0.00679211 0 0.0374982 0 0)
(0.207464 -0.0155361 0 0.0512587 0 0)
(0.215602 -0.0274652 0 0.0689794 0 0)
(0.223872 -0.0418702 0 0.0942879 0 0)
(0.240542 -0.067504 0 0.130943 0 0)
(0.255887 -0.0978713 0 0.194291 0 0)
(0.27769 -0.13975 0 0.284091 0 0)
(0.293126 -0.182981 0 0.418402 0 0)
(0.318919 -0.229615 0 0.617739 0 0)
(0.362218 -0.251745 0 0.952001 0 0)
(0.39052 0.0202347 0 0.00686548 0 0)
(0.194666 -0.0052021 0 0.0104826 0 0)
(0.196611 -0.00376705 0 0.0159217 0 0)
(0.195522 0.00306495 0 0.0185649 0 0)
(0.199337 0.00544333 0 0.0185204 0 0)
(0.197071 0.00213858 0 0.0199343 0 0)
(0.194734 -0.00154925 0 0.023232 0 0)
(0.194844 -0.00548888 0 0.0285185 0 0)
(0.20007 -0.0122529 0 0.0363541 0 0)
(0.205108 -0.0207941 0 0.0521077 0 0)
(0.214513 -0.0345015 0 0.0720384 0 0)
(0.224918 -0.0502348 0 0.101512 0 0)
(0.23843 -0.0702331 0 0.141985 0 0)
(0.245344 -0.093107 0 0.205116 0 0)
(0.254807 -0.123314 0 0.291153 0 0)
(0.263006 -0.152164 0 0.423814 0 0)
(0.272688 -0.179684 0 0.605363 0 0)
(0.297431 -0.190148 0 0.887553 0 0)
(0.411224 0.0144963 0 0.00946144 0 0)
(0.203099 -0.00522712 0 0.00935445 0 0)
(0.207921 -0.00334318 0 0.0124677 0 0)
(0.204436 0.00375726 0 0.0158389 0 0)
(0.202343 0.00570156 0 0.0182324 0 0)
(0.200184 0.0039127 0 0.0206977 0 0)
(0.199273 0.000528344 0 0.0244273 0 0)
(0.201121 -0.00307321 0 0.0315871 0 0)
(0.204998 -0.00898154 0 0.0416146 0 0)
(0.208266 -0.0162669 0 0.0572752 0 0)
(0.213231 -0.026876 0 0.0781453 0 0)
(0.216637 -0.0373057 0 0.10968 0 0)
(0.221336 -0.0517523 0 0.150547 0 0)
(0.224162 -0.0656872 0 0.213038 0 0)
(0.229211 -0.0804836 0 0.294071 0 0)
(0.228743 -0.0882669 0 0.408674 0 0)
(0.22993 -0.0939697 0 0.557196 0 0)
(0.25593 -0.087105 0 0.790593 0 0)
(0.41294 0.018818 0 0.00727627 0 0)
(0.189235 -0.00638245 0 0.00933718 0 0)
(0.188857 -0.00498302 0 0.0124653 0 0)
(0.185402 0.000439719 0 0.0155477 0 0)
(0.186501 0.0016912 0 0.0181252 0 0)
(0.186761 -9.80872e-05 0 0.0211571 0 0)
(0.186511 -0.00317065 0 0.0254032 0 0)
(0.188913 -0.00663688 0 0.0328899 0 0)
(0.193103 -0.0127338 0 0.0429893 0 0)
(0.195959 -0.0201124 0 0.0596055 0 0)
(0.199894 -0.0305414 0 0.0825437 0 0)
(0.202584 -0.0399023 0 0.115576 0 0)
(0.207403 -0.0506409 0 0.156031 0 0)
(0.208514 -0.0584683 0 0.213316 0 0)
(0.209054 -0.0672265 0 0.286099 0 0)
(0.209384 -0.0682651 0 0.386157 0 0)
(0.213202 -0.0651146 0 0.510781 0 0)
(0.229075 -0.0493256 0 0.71218 0 0)
(0.386995 0.0162748 0 0.0108891 0 0)
(0.188218 -0.00851585 0 0.0125736 0 0)
(0.189179 -0.00660169 0 0.0141421 0 0)
(0.182806 -0.000827902 0 0.0172796 0 0)
(0.18145 -2.51593e-05 0 0.0216138 0 0)
(0.181438 -0.00277787 0 0.0271689 0 0)
(0.182626 -0.00625114 0 0.0330315 0 0)
(0.184461 -0.00969626 0 0.0409943 0 0)
(0.187053 -0.0142946 0 0.0512637 0 0)
(0.189138 -0.0193299 0 0.0670317 0 0)
(0.192386 -0.026634 0 0.0881033 0 0)
(0.194275 -0.0334092 0 0.11909 0 0)
(0.196154 -0.0401537 0 0.157175 0 0)
(0.196504 -0.0424514 0 0.209715 0 0)
(0.197367 -0.0413976 0 0.272632 0 0)
(0.197852 -0.0317864 0 0.353504 0 0)
(0.199849 -0.0178727 0 0.454058 0 0)
(0.215642 0.00950732 0 0.637532 0 0)
(0.430665 0.0245839 0 0.013021 0 0)
(0.196177 -0.00450306 0 0.0127836 0 0)
(0.18795 -0.00411441 0 0.0137913 0 0)
(0.178852 -0.000362308 0 0.016464 0 0)
(0.180518 1.71461e-05 0 0.0205027 0 0)
(0.185813 -0.00175547 0 0.025329 0 0)
(0.189642 -0.00346573 0 0.0313102 0 0)
(0.191598 -0.00417797 0 0.0394061 0 0)
(0.19161 -0.00574567 0 0.0507484 0 0)
(0.190053 -0.00736445 0 0.0668087 0 0)
(0.188698 -0.0106424 0 0.0876124 0 0)
(0.188778 -0.0123136 0 0.116548 0 0)
(0.191578 -0.0135339 0 0.15146 0 0)
(0.193289 -0.00983252 0 0.196503 0 0)
(0.193987 -0.00365015 0 0.248412 0 0)
(0.19628 0.0111073 0 0.31249 0 0)
(0.201483 0.0306827 0 0.388655 0 0)
(0.223428 0.0604652 0 0.528014 0 0)
(0.380516 0.0222977 0 0.010731 0 0)
(0.198646 -0.00935658 0 0.011913 0 0)
(0.19715 -0.00919351 0 0.0129969 0 0)
(0.185095 -0.00236098 0 0.0158508 0 0)
(0.179958 0.000382392 0 0.020413 0 0)
(0.179341 -0.000651679 0 0.0260481 0 0)
(0.181866 -0.00280188 0 0.0330891 0 0)
(0.184732 -0.00390758 0 0.0418732 0 0)
(0.186812 -0.00462525 0 0.0532405 0 0)
(0.187151 -0.00392485 0 0.068578 0 0)
(0.187047 -0.00379912 0 0.0880081 0 0)
(0.187215 -0.00154921 0 0.113426 0 0)
(0.188169 0.000835696 0 0.142852 0 0)
(0.190376 0.00778909 0 0.178766 0 0)
(0.193621 0.0174744 0 0.217923 0 0)
(0.199934 0.0350418 0 0.265267 0 0)
(0.208715 0.0558161 0 0.328675 0 0)
(0.228413 0.0925786 0 0.487826 0 0)
(0.353621 0.0120866 0 0.0136233 0 0)
(0.199628 -0.00386412 0 0.0137102 0 0)
(0.202827 -0.00631256 0 0.0122068 0 0)
(0.190914 -0.00321182 0 0.0140604 0 0)
(0.183614 -0.00175309 0 0.0182754 0 0)
(0.178904 -0.00297617 0 0.0234916 0 0)
(0.17825 -0.00530708 0 0.0299101 0 0)
(0.179996 -0.006719 0 0.0377202 0 0)
(0.184154 -0.00739384 0 0.0473915 0 0)
(0.187407 -0.00633188 0 0.0602349 0 0)
(0.188901 -0.00471419 0 0.0759089 0 0)
(0.188513 -0.000684672 0 0.0959953 0 0)
(0.187652 0.00441878 0 0.118852 0 0)
(0.188575 0.0131168 0 0.145744 0 0)
(0.191579 0.0233267 0 0.173776 0 0)
(0.198939 0.038511 0 0.207572 0 0)
(0.209378 0.0577968 0 0.249696 0 0)
(0.228184 0.0873634 0 0.330911 0 0)
(0.41846 0.00785044 0 0.0127266 0 0)
(0.196817 -0.000650986 0 0.0126968 0 0)
(0.191061 0.000397393 0 0.0121373 0 0)
(0.186131 0.00451063 0 0.0148998 0 0)
(0.185657 0.00614958 0 0.0195277 0 0)
(0.183795 0.00530269 0 0.0250223 0 0)
(0.182355 0.00481155 0 0.0315763 0 0)
(0.182364 0.00603342 0 0.0393863 0 0)
(0.184288 0.00884529 0 0.0487879 0 0)
(0.187356 0.0127463 0 0.0602049 0 0)
(0.190218 0.0170463 0 0.0735573 0 0)
(0.192488 0.0228645 0 0.0893704 0 0)
(0.194807 0.0298377 0 0.105946 0 0)
(0.198959 0.0395254 0 0.124223 0 0)
(0.206122 0.0512017 0 0.14259 0 0)
(0.217017 0.0652432 0 0.161292 0 0)
(0.23074 0.0796357 0 0.178051 0 0)
(0.249045 0.0974861 0 0.210122 0 0)
(0.406259 0.0192725 0 0.0125425 0 0)
(0.196941 -0.00217635 0 0.020324 0 0)
(0.188272 -0.00211174 0 0.0214535 0 0)
(0.1822 0.0013592 0 0.0207183 0 0)
(0.183161 0.00296884 0 0.0226408 0 0)
(0.18463 0.00294865 0 0.0268037 0 0)
(0.185249 0.003767 0 0.0314035 0 0)
(0.185994 0.00610126 0 0.0357774 0 0)
(0.187701 0.0102398 0 0.0406233 0 0)
(0.190856 0.0158449 0 0.0470558 0 0)
(0.196161 0.022274 0 0.055277 0 0)
(0.203544 0.0298313 0 0.0654324 0 0)
(0.212771 0.0385615 0 0.0763697 0 0)
(0.224423 0.0494105 0 0.0880484 0 0)
(0.23773 0.061838 0 0.0989717 0 0)
(0.253127 0.0756991 0 0.11032 0 0)
(0.269231 0.0897002 0 0.121985 0 0)
(0.287066 0.102972 0 0.133342 0 0)
(0.429091 0.0223026 0 0.0133349 0 0)
(0.201285 -0.000347861 0 0.0119968 0 0)
(0.192156 -0.00248561 0 0.0115168 0 0)
(0.190673 0.00264628 0 0.0127434 0 0)
(0.193493 0.00611107 0 0.0151633 0 0)
(0.195584 0.00705102 0 0.0181372 0 0)
(0.197125 0.00836929 0 0.0217148 0 0)
(0.19896 0.0113794 0 0.0256475 0 0)
(0.201257 0.0159295 0 0.0299982 0 0)
(0.205794 0.0215816 0 0.0346552 0 0)
(0.213346 0.0278524 0 0.0398669 0 0)
(0.223512 0.0347784 0 0.0460289 0 0)
(0.235405 0.0424401 0 0.0525841 0 0)
(0.248811 0.0515918 0 0.0597656 0 0)
(0.263204 0.0617823 0 0.0667656 0 0)
(0.279608 0.073067 0 0.0739453 0 0)
(0.296767 0.0839896 0 0.0801204 0 0)
(0.316826 0.0950516 0 0.0867897 0 0)
(0.394303 0.0167843 0 0.0132975 0 0)
(0.191537 -0.00711773 0 0.0114443 0 0)
(0.194256 -0.00803047 0 0.00974796 0 0)
(0.187403 -0.00279557 0 0.00968615 0 0)
(0.185334 0.00103924 0 0.0102484 0 0)
(0.186141 0.00241324 0 0.0112677 0 0)
(0.1907 0.00342885 0 0.0131551 0 0)
(0.198582 0.0058161 0 0.0157245 0 0)
(0.20813 0.0101356 0 0.0189457 0 0)
(0.217376 0.0156157 0 0.0221477 0 0)
(0.225868 0.0214316 0 0.0252966 0 0)
(0.234476 0.0270438 0 0.0286819 0 0)
(0.244557 0.0327833 0 0.0324163 0 0)
(0.257485 0.0392218 0 0.0366982 0 0)
(0.273905 0.0466325 0 0.0409313 0 0)
(0.29358 0.0551538 0 0.0453518 0 0)
(0.314461 0.0641153 0 0.0493759 0 0)
(0.335663 0.0732121 0 0.0533099 0 0)
(0.360724 0.00578051 0 0.00897033 0 0)
(0.191223 -0.00188804 0 0.00646276 0 0)
(0.194007 -0.00386798 0 0.00401624 0 0)
(0.18681 -0.00424684 0 0.00320552 0 0)
(0.184973 -0.00313472 0 0.00344485 0 0)
(0.187319 -0.00130791 0 0.00410921 0 0)
(0.194286 0.0012923 0 0.00547345 0 0)
(0.204103 0.00441269 0 0.00740424 0 0)
(0.215068 0.00816539 0 0.00971346 0 0)
(0.225361 0.012146 0 0.012098 0 0)
(0.235729 0.0167007 0 0.0144286 0 0)
(0.247298 0.0217721 0 0.0168136 0 0)
(0.261136 0.0275965 0 0.0191864 0 0)
(0.277565 0.0339927 0 0.0218365 0 0)
(0.296715 0.0407797 0 0.0243875 0 0)
(0.317817 0.0477977 0 0.0270532 0 0)
(0.339912 0.0546256 0 0.0292541 0 0)
(0.362536 0.0615304 0 0.0314927 0 0)
(0.417262 -0.00224645 0 0.00927993 0 0)
(0.186878 -0.00192727 0 0.00542204 0 0)
(0.185242 -0.00385589 0 0.00282244 0 0)
(0.187227 -0.00552478 0 0.00226025 0 0)
(0.194425 -0.00453889 0 0.00204941 0 0)
(0.201293 -0.00238716 0 0.00209993 0 0)
(0.208245 0.000215939 0 0.00264181 0 0)
(0.215391 0.00267328 0 0.00349279 0 0)
(0.223915 0.0053591 0 0.00445899 0 0)
(0.234327 0.00834887 0 0.00541198 0 0)
(0.24759 0.012134 0 0.00644689 0 0)
(0.263189 0.0164605 0 0.00758007 0 0)
(0.281335 0.0213912 0 0.00888814 0 0)
(0.300972 0.0266622 0 0.0104167 0 0)
(0.322903 0.0322878 0 0.012006 0 0)
(0.346309 0.0380432 0 0.0136593 0 0)
(0.371673 0.043788 0 0.0150614 0 0)
(0.397254 0.0493906 0 0.0163419 0 0)
(0.442109 -0.000365262 0 0.0127682 0 0)
(0.189528 -0.00496778 0 0.0083801 0 0)
(0.186272 -0.00780274 0 0.00413469 0 0)
(0.202762 -0.0107103 0 0.00254394 0 0)
(0.226159 -0.0101058 0 0.0020936 0 0)
(0.244393 -0.00764496 0 0.00206021 0 0)
(0.257139 -0.00443629 0 0.00220224 0 0)
(0.267772 -0.00153026 0 0.00231672 0 0)
(0.281095 0.00129825 0 0.00248032 0 0)
(0.298576 0.00407145 0 0.00270061 0 0)
(0.320415 0.00727713 0 0.00306735 0 0)
(0.343978 0.0107273 0 0.00357764 0 0)
(0.368871 0.0146385 0 0.00414209 0 0)
(0.393674 0.0187044 0 0.00480604 0 0)
(0.419895 0.0230532 0 0.00548103 0 0)
(0.447282 0.0274376 0 0.00618168 0 0)
(0.476682 0.0316697 0 0.00679561 0 0)
(0.50595 0.0357941 0 0.00738637 0 0)
(0.407964 -0.00420296 0 0.00794415 0 0)
(0.19006 -0.00670104 0 0.00672827 0 0)
(0.187793 -0.00810914 0 0.00554231 0 0)
(0.202029 -0.0122099 0 0.00427592 0 0)
(0.224049 -0.0132132 0 0.00304052 0 0)
(0.242792 -0.0121932 0 0.00214058 0 0)
(0.257475 -0.0106479 0 0.00185217 0 0)
(0.270085 -0.00910924 0 0.00194426 0 0)
(0.284475 -0.00706962 0 0.00209259 0 0)
(0.301887 -0.00478145 0 0.00217068 0 0)
(0.323005 -0.00216239 0 0.00214399 0 0)
(0.346861 0.000486311 0 0.00214467 0 0)
(0.373092 0.00332699 0 0.00228654 0 0)
(0.400575 0.00648352 0 0.00257515 0 0)
(0.42932 0.00995371 0 0.00298747 0 0)
(0.458384 0.0136986 0 0.00343534 0 0)
(0.488205 0.0173047 0 0.0038429 0 0)
(0.517356 0.020719 0 0.00416939 0 0)
(0.408493 -0.00595577 0 0.00749967 0 0)
(0.187616 -0.00283092 0 0.00670403 0 0)
(0.192507 -0.00973757 0 0.0070367 0 0)
(0.219357 -0.018063 0 0.00659528 0 0)
(0.250908 -0.0197215 0 0.00515029 0 0)
(0.274868 -0.0180912 0 0.00377814 0 0)
(0.292873 -0.0162415 0 0.00282739 0 0)
(0.309668 -0.0147555 0 0.00229023 0 0)
(0.328946 -0.0133395 0 0.00203328 0 0)
(0.351056 -0.0120751 0 0.00186767 0 0)
(0.375755 -0.0107312 0 0.00169307 0 0)
(0.401934 -0.0094188 0 0.00146474 0 0)
(0.430115 -0.00801934 0 0.00130278 0 0)
(0.459418 -0.00653624 0 0.00121837 0 0)
(0.490736 -0.00488803 0 0.00130966 0 0)
(0.522954 -0.00298714 0 0.00149606 0 0)
(0.556738 -0.000979366 0 0.00175276 0 0)
(0.590446 0.00132448 0 0.00199303 0 0)
(0.358484 -0.0212392 0 0.00912651 0 0)
(0.188047 -0.0045416 0 0.0131834 0 0)
(0.200288 -0.0123024 0 0.0139461 0 0)
(0.231165 -0.0235269 0 0.0111717 0 0)
(0.265003 -0.0274021 0 0.00832678 0 0)
(0.289836 -0.0279192 0 0.00709487 0 0)
(0.310241 -0.0273566 0 0.00670899 0 0)
(0.331732 -0.0258312 0 0.00642003 0 0)
(0.356669 -0.0238779 0 0.00578915 0 0)
(0.384524 -0.0222085 0 0.00492756 0 0)
(0.413631 -0.0208794 0 0.0040475 0 0)
(0.442909 -0.0199057 0 0.00336636 0 0)
(0.471933 -0.0189942 0 0.00301274 0 0)
(0.501056 -0.0180728 0 0.00299727 0 0)
(0.530252 -0.0170258 0 0.00318317 0 0)
(0.55979 -0.016009 0 0.00337795 0 0)
(0.589104 -0.014844 0 0.00351217 0 0)
(0.618042 -0.0136365 0 0.00347264 0 0)
(0.415002 -0.0324018 0 0.0073091 0 0)
(0.188204 -0.0130847 0 0.0171563 0 0)
(0.212445 -0.0280135 0 0.0207727 0 0)
(0.272366 -0.0423744 0 0.0176086 0 0)
(0.320212 -0.047147 0 0.0151614 0 0)
(0.341946 -0.0470763 0 0.0138655 0 0)
(0.350136 -0.0442091 0 0.0128728 0 0)
(0.353036 -0.0389981 0 0.0115432 0 0)
(0.356015 -0.0336917 0 0.00989021 0 0)
(0.358243 -0.0292301 0 0.00823051 0 0)
(0.360942 -0.0261648 0 0.00684758 0 0)
(0.361752 -0.0238128 0 0.0059296 0 0)
(0.362849 -0.0218986 0 0.00546254 0 0)
(0.362856 -0.0200169 0 0.00537608 0 0)
(0.364222 -0.0183487 0 0.00542392 0 0)
(0.365183 -0.0168219 0 0.00555802 0 0)
(0.36765 -0.0154269 0 0.00557461 0 0)
(0.369355 -0.0140425 0 0.00553136 0 0)
(0.379041 -0.0362118 0 0.011198 0 0)
(0.191972 -0.0138988 0 0.0292714 0 0)
(0.214542 -0.0250317 0 0.0285893 0 0)
(0.235501 -0.029918 0 0.0212833 0 0)
(0.222199 -0.0229506 0 0.0184186 0 0)
(0.197219 -0.0113184 0 0.0171894 0 0)
(0.182322 6.73376e-05 0 0.0155343 0 0)
(0.180893 0.00899157 0 0.013098 0 0)
(0.188614 0.014155 0 0.0104179 0 0)
(0.202893 0.0171874 0 0.00815066 0 0)
(0.21961 0.0185781 0 0.0063667 0 0)
(0.238941 0.0199319 0 0.00537657 0 0)
(0.259067 0.0211016 0 0.00487558 0 0)
(0.280055 0.0224064 0 0.00474703 0 0)
(0.301036 0.0235792 0 0.00473198 0 0)
(0.321991 0.0247947 0 0.00478196 0 0)
(0.340854 0.0261334 0 0.00486636 0 0)
(0.359699 0.0278586 0 0.00497888 0 0)
(0.394044 -0.0728078 0 0.0236584 0 0)
(0.186246 0.00952908 0 0.0440516 0 0)
(0.230586 0.0340844 0 0.0319551 0 0)
(0.291838 0.0472707 0 0.0197136 0 0)
(0.435086 0.0585141 0 0.0128881 0 0)
(0.651689 0.0590868 0 0.0086269 0 0)
(0.890663 0.0509259 0 0.00561661 0 0)
(1.11459 0.0403298 0 0.00350248 0 0)
(1.30571 0.0318873 0 0.00215168 0 0)
(1.46846 0.0263517 0 0.00141668 0 0)
(1.60192 0.0235426 0 0.000994016 0 0)
(1.71614 0.0227704 0 0.000864916 0 0)
(1.8173 0.0225069 0 0.000784039 0 0)
(1.89797 0.0237067 0 0.000844279 0 0)
(1.985 0.024623 0 0.000887958 0 0)
(2.04235 0.0261002 0 0.000951799 0 0)
(2.121 0.0308168 0 0.00114624 0 0)
(2.1662 0.0329991 0 0.00120703 0 0)
(0.21198 -0.0129925 0 0.00684534 0 0)
(0.71211 0.0386522 0 0.00398456 0 0)
(1.28543 0.0225013 0 0.000889912 0 0)
(1.74238 0.00604994 0 0.000110666 0 0)
(2.15577 -0.00374671 0 4.70106e-05 0 0)
(2.45354 -0.00931837 0 7.0634e-05 0 0)
(2.63634 -0.009637 0 5.85945e-05 0 0)
(2.74479 -0.00680177 0 4.40927e-05 0 0)
(2.81598 -0.00314628 0 4.35326e-05 0 0)
(2.87017 6.23211e-05 0 5.13992e-05 0 0)
(2.91596 0.00253084 0 6.28027e-05 0 0)
(2.95752 0.00426741 0 7.84863e-05 0 0)
(2.99817 0.0055196 0 9.31993e-05 0 0)
(3.03325 0.0067566 0 0.000118839 0 0)
(3.08205 0.00708521 0 0.000116702 0 0)
(3.09924 0.00969208 0 0.000184781 0 0)
(3.18733 0.0107071 0 0.000152817 0 0)
(3.16198 0.013724 0 0.000301039 0 0)
(0.0014398 -0.00311456 0 0.00675385 0 0)
(0.0138273 -0.0100333 0 0.00729496 0 0)
(0.0391018 -0.0168113 0 0.0072342 0 0)
(0.0779283 -0.0236243 0 0.00716635 0 0)
(0.129895 -0.0302638 0 0.00705533 0 0)
(0.195225 -0.0367145 0 0.00690974 0 0)
(0.273351 -0.0428733 2.77899e-20 0.00673135 -4.23266e-21 1.65842e-36)
(0.364022 -0.0486648 -3.16242e-20 0.0065158 4.0865e-21 1.63351e-36)
(0.466586 -0.0540284 0 0.00627085 0 0)
(0.580314 -0.0589035 -3.883e-20 0.00600001 3.75764e-21 1.5844e-36)
(0.70401 -0.0631937 0 0.00570189 0 0)
(0.836418 -0.0667857 0 0.00537236 0 0)
(0.976472 -0.0696268 0 0.00501702 0 0)
(1.12234 -0.0716429 5.09649e-20 0.0046397 -2.97441e-21 1.48903e-36)
(1.2722 -0.0727339 0 0.00424008 0 0)
(1.42375 -0.0728391 0 0.00382325 0 0)
(1.57506 -0.071885 -5.76883e-20 0.00339294 2.30754e-21 1.41997e-36)
(1.72361 -0.0699091 0 0.00296037 0 0)
(1.86702 -0.066797 0 0.00252552 0 0)
(2.00298 -0.0627148 0 0.00210651 0 0)
(2.12884 -0.0575935 6.30503e-20 0.00170446 -1.39165e-21 1.33115e-36)
(2.24222 -0.0516603 0 0.00133612 0 0)
(2.34104 -0.0449583 6.41441e-20 0.00100318 -9.58752e-22 1.28814e-36)
(2.42387 -0.0376154 0 0.000715349 0 0)
(2.48895 -0.0299305 0 0.000480589 0 0)
(2.53555 -0.0220868 6.39276e-20 0.000299396 -3.83232e-22 1.22538e-36)
(2.56299 -0.0142786 0 0.00017149 0 0)
(2.57155 -0.00664446 -6.26872e-20 9.43096e-05 7.15458e-23 1.1847e-36)
(2.56182 0.000539132 0 6.34658e-05 0 0)
(2.53468 0.00714818 6.0735e-20 7.11414e-05 1.72234e-22 1.14496e-36)
(2.49165 0.0130352 0 0.000109414 0 0)
(2.43419 0.0180982 0 0.000169012 0 0)
(2.36417 0.0222765 0 0.000240744 0 0)
(2.28363 0.0255515 0 0.000316267 0 0)
(2.1947 0.0279234 0 0.000388209 0 0)
(2.09938 0.0294279 -5.22557e-20 0.000450665 -4.97127e-22 1.03135e-36)
(1.99966 0.0301412 0 0.000499741 0 0)
(1.89767 0.0301432 9.81514e-20 0.00053288 9.81912e-22 3.98138e-36)
(1.79487 0.0294814 0 0.0005476 0 0)
(1.69298 0.0283481 -9.18806e-20 0.000547876 -8.91713e-22 3.84106e-36)
(1.59362 0.0267685 0 0.000531845 0 0)
(1.49748 0.0248475 0 0.000502089 0 0)
(1.4055 0.0227188 8.3043e-20 0.000463469 6.5714e-22 3.63748e-36)
(1.31846 0.0204361 0 0.000417647 0 0)
(1.23674 0.0180798 7.7712e-20 0.000367667 4.66636e-22 3.50633e-36)
(1.16065 0.0157261 -7.52408e-20 0.000316784 -3.67716e-22 3.4421e-36)
(1.09037 0.0134192 0 0.000267258 0 0)
(1.0259 0.0111941 -7.07186e-20 0.000220927 -1.73653e-22 3.31634e-36)
(0.967161 0.00908597 -6.86693e-20 0.000179224 -7.99816e-23 3.2548e-36)
(0.914013 0.00712124 0 0.000143079 0 0)
(0.86623 0.00530931 0 0.000112927 0 0)
(0.823527 0.00364986 0 8.88177e-05 0 0)
(0.785603 0.00214488 0 7.05034e-05 0 0)
(0.75216 0.000797859 0 5.74925e-05 0 0)
(0.722891 -0.000395538 5.9192e-20 4.91486e-05 -3.70306e-22 2.90385e-36)
(0.697474 -0.00144849 0 4.4778e-05 0 0)
(0.675592 -0.00237364 -5.69917e-20 4.36336e-05 4.6875e-22 2.7937e-36)
(0.656953 -0.0031775 0 4.49166e-05 0 0)
(0.641292 -0.00386574 0 4.78701e-05 0 0)
(0.628346 -0.00444965 5.44129e-20 5.18869e-05 -5.70329e-22 2.63467e-36)
(0.617861 -0.0049433 0 5.64896e-05 0 0)
(0.609606 -0.00535634 -5.30959e-20 6.12296e-05 6.09426e-22 2.53271e-36)
(0.603378 -0.00569362 0 6.56816e-05 0 0)
(0.598988 -0.00596087 0 6.95484e-05 0 0)
(0.596255 -0.00616809 0 7.27139e-05 0 0)
(0.595009 -0.00632445 5.11893e-20 7.51333e-05 -6.35174e-22 2.33823e-36)
(0.595096 -0.00643512 0 7.67443e-05 0 0)
(0.596385 -0.00650312 0 7.74947e-05 0 0)
(0.598755 -0.00653241 5.02179e-20 7.7414e-05 -6.20781e-22 2.20038e-36)
(0.602084 -0.0065307 0 7.6643e-05 0 0)
(0.60626 -0.00650025 4.97162e-20 7.52357e-05 -6.00642e-22 2.11217e-36)
(0.611176 -0.00644232 0 7.32364e-05 0 0)
(0.616752 -0.00636029 0 7.07039e-05 0 0)
(0.622909 -0.00624617 0 6.7529e-05 0 0)
(0.629566 -0.00609734 -4.89278e-20 6.37775e-05 5.41769e-22 1.9443e-36)
(0.636657 -0.00593033 0 5.98272e-05 0 0)
(0.644116 -0.00575995 0 5.59604e-05 0 0)
(0.651882 -0.00558955 -4.84393e-20 5.22438e-05 4.88334e-22 1.8256e-36)
(0.659906 -0.00542007 -4.82847e-20 4.87035e-05 4.70875e-22 1.78737e-36)
(0.668141 -0.00525196 0 4.53519e-05 0 0)
(0.676547 -0.00508608 -4.79793e-20 4.21944e-05 4.37011e-22 1.71283e-36)
(0.685093 -0.00492133 0 3.9202e-05 0 0)
(0.693754 -0.00475865 -9.53411e-20 3.63846e-05 8.10304e-22 6.56331e-36)
(0.702501 -0.00459996 0 3.37633e-05 0 0)
(0.711293 -0.00444414 -9.47066e-20 3.13463e-05 7.50301e-22 6.28515e-36)
(0.720118 -0.00429635 0 2.91732e-05 0 0)
(0.728975 -0.00415949 9.40474e-20 2.72248e-05 -6.95864e-22 6.01656e-36)
(0.737857 -0.00402743 0 2.54167e-05 0 0)
(0.746737 -0.0038971 0 2.37203e-05 0 0)
(0.755585 -0.00376928 0 2.21473e-05 0 0)
(0.764382 -0.00364527 -9.26289e-20 2.07027e-05 6.00728e-22 5.50709e-36)
(0.773125 -0.00352602 0 1.93781e-05 0 0)
(0.781821 -0.00341072 9.18633e-20 1.81507e-05 -5.58227e-22 5.26567e-36)
(0.790464 -0.00329838 0 1.70121e-05 0 0)
(0.799038 -0.00318918 -9.10579e-20 1.59635e-05 5.192e-22 5.0328e-36)
(0.807531 -0.00308363 -9.06403e-20 1.50004e-05 5.00828e-22 4.91949e-36)
(0.815943 -0.00298129 -9.02131e-20 1.41086e-05 4.83261e-22 4.80823e-36)
(0.824284 -0.00288132 0 1.32746e-05 0 0)
(0.832556 -0.00278349 0 1.24947e-05 0 0)
(0.840748 -0.00268843 0 1.17741e-05 0 0)
(0.848847 -0.00259726 0 1.11186e-05 0 0)
(0.856852 -0.00251071 0 1.05251e-05 0 0)
(0.864773 -0.00242816 0 9.97967e-06 0 0)
(0.872619 -0.002348 0 9.46795e-06 0 0)
(0.88039 -0.00226916 0 8.98612e-06 0 0)
(0.888077 -0.00219224 8.59608e-20 8.54019e-06 -3.56428e-22 3.89384e-36)
(0.895675 -0.0021188 8.54474e-20 8.13556e-06 -3.45162e-22 3.80138e-36)
(0.903184 -0.00204958 0 7.7689e-06 0 0)
(0.910617 -0.0019837 0 7.43035e-06 0 0)
(0.91798 -0.00191947 0 7.11089e-06 0 0)
(0.925272 -0.00185597 8.33242e-20 6.80894e-06 -3.04511e-22 3.44853e-36)
(0.93249 -0.00179375 0 6.52807e-06 0 0)
(0.939629 -0.00173405 0 6.27064e-06 0 0)
(0.946691 -0.00167746 0 6.03464e-06 0 0)
(0.953684 -0.00162342 0 5.81562e-06 0 0)
(0.960611 -0.00157086 -8.05268e-20 5.61005e-06 2.62102e-22 3.04373e-36)
(0.967474 -0.00151909 0 5.41673e-06 0 0)
(0.97427 -0.00146819 0 5.23604e-06 0 0)
(0.981 -0.00141864 7.8782e-20 5.06756e-06 -2.40179e-22 2.81901e-36)
(0.987664 -0.00137079 -7.81902e-20 4.91016e-06 2.33443e-22 2.74698e-36)
(0.994265 -0.00132467 0 4.76287e-06 0 0)
(1.0008 -0.00128008 -7.69928e-20 4.62532e-06 2.20654e-22 2.60711e-36)
(1.00728 -0.0012368 0 4.49724e-06 0 0)
(1.0137 -0.00119451 7.57779e-20 4.37748e-06 -2.08472e-22 2.47268e-36)
(1.02006 -0.00115288 0 4.26469e-06 0 0)
(1.02637 -0.00111179 0 4.15803e-06 0 0)
(1.03262 -0.00107147 0 4.05753e-06 0 0)
(1.03881 -0.00103238 0 3.96352e-06 0 0)
(1.04494 -0.000994758 0 3.8758e-06 0 0)
(1.05102 -0.000958434 -1.44068e-19 3.7936e-06 3.52951e-22 8.40104e-36)
(1.05704 -0.000922793 -1.42794e-19 3.71577e-06 3.43233e-22 8.16992e-36)
(1.06301 -0.000887238 0 3.64164e-06 0 0)
(1.06893 -0.000851622 0 3.57116e-06 0 0)
(1.0748 -0.000816359 0 3.50471e-06 0 0)
(1.08061 -0.000782117 1.37629e-19 3.44245e-06 -3.07232e-22 7.29161e-36)
(1.08636 -0.000749173 0 3.38377e-06 0 0)
(1.09206 -0.000717245 0 3.32792e-06 0 0)
(1.09771 -0.000685614 0 3.27433e-06 0 0)
(1.10331 -0.000653747 1.32359e-19 3.22325e-06 -2.7489e-22 6.48364e-36)
(1.10886 -0.000621783 -1.31026e-19 3.17534e-06 2.67156e-22 6.29211e-36)
(1.11435 -0.000590338 0 3.13048e-06 0 0)
(1.11978 -0.000559876 0 3.0877e-06 0 0)
(1.12516 -0.000530339 -1.26991e-19 3.04628e-06 2.45594e-22 5.74156e-36)
(1.13049 -0.000501361 -1.25633e-19 3.0064e-06 2.38651e-22 5.56584e-36)
(1.13576 -0.000472592 0 2.96852e-06 0 0)
(1.14098 -0.000443844 0 2.93284e-06 0 0)
(1.14615 -0.000415188 1.21527e-19 2.89931e-06 -2.18608e-22 5.06121e-36)
(1.15125 -0.000386913 -1.20146e-19 2.86747e-06 2.12299e-22 4.9003e-36)
(1.1563 -0.000359298 0 2.83658e-06 0 0)
(1.16129 -0.000332414 0 2.80605e-06 0 0)
(1.16623 -0.000305974 -1.15969e-19 2.77588e-06 1.94418e-22 4.43867e-36)
(1.17111 -0.000279728 0 2.74668e-06 0 0)
(1.17594 -0.000253749 0 2.71889e-06 0 0)
(1.18071 -0.000228245 -1.11741e-19 2.69225e-06 1.77305e-22 4.00752e-36)
(1.18542 -0.000203142 0 2.66626e-06 0 0)
(1.19007 -0.000178425 -1.08895e-19 2.64055e-06 1.66517e-22 3.7363e-36)
(1.19467 -0.000154311 0 2.61472e-06 0 0)
(1.19922 -0.000130622 0 2.58841e-06 0 0)
(1.20371 -0.000107694 0 2.56019e-06 0 0)
(1.20814 -8.48482e-05 1.03134e-19 2.53236e-06 -1.46269e-22 3.23095e-36)
(1.21254 -6.39966e-05 0 2.49792e-06 0 0)
(1.21686 -4.01516e-05 0 2.47197e-06 0 0)
(1.2212 -2.53837e-05 0 2.41874e-06 0 0)
(1.22539 6.82356e-06 0 2.41309e-06 0 0)
(1.22978 -6.64808e-07 0 2.29347e-06 0 0)
(1.23367 6.86934e-05 0 2.38459e-06 0 0)
(1.23853 -1.48169e-05 9.28465e-20 2.06223e-06 -1.15347e-22 2.45779e-36)
(1.24153 0.000175155 9.13304e-20 2.46275e-06 -1.03663e-22 2.3582e-36)
(1.24796 -0.000104312 0 1.6874e-06 0 0)
(1.24854 0.000350883 0 2.70255e-06 0 0)
(1.25894 -0.000269783 0 1.27642e-06 0 0)
(1.25433 0.000526322 -8.52173e-20 2.77053e-06 6.8912e-23 1.98554e-36)
(1.27202 -0.000376722 0 1.02884e-06 0 0)