# vtk DataFile Version 2.0
sampleSurface
ASCII
DATASET POLYDATA
POINTS 502 float
-0.0206 0 -0.0005
-0.0190172 0 -0.0005
-0.0190172 0 0.0005
-0.0206 0 0.0005
-0.0174976 0 -0.0005
-0.0174976 0 0.0005
-0.0160387 0 -0.0005
-0.0160387 0 0.0005
-0.0146381 0 -0.0005
-0.0146381 0 0.0005
-0.0132934 0 -0.0005
-0.0132934 0 0.0005
-0.0120025 0 -0.0005
-0.0120025 0 0.0005
-0.0107632 0 -0.0005
-0.0107632 0 0.0005
-0.00957337 0 -0.0005
-0.00957337 0 0.0005
-0.00843108 0 -0.0005
-0.00843108 0 0.0005
-0.00733443 0 -0.0005
-0.00733443 0 0.0005
-0.0062816 0 -0.0005
-0.0062816 0 0.0005
-0.00527083 0 -0.0005
-0.00527083 0 0.0005
-0.00430044 0 -0.0005
-0.00430044 0 0.0005
-0.00336883 0 -0.0005
-0.00336883 0 0.0005
-0.00247443 0 -0.0005
-0.00247443 0 0.0005
-0.00161577 0 -0.0005
-0.00161577 0 0.0005
-0.000791418 0 -0.0005
-0.000791418 0 0.0005
0 0 -0.0005
0 0 0.0005
0 -0.005 -0.0005
0 -0.005 0.0005
0 -0.00423364 0.0005
0 -0.00423364 -0.0005
0 -0.00353089 0.0005
0 -0.00353089 -0.0005
0 -0.00288647 0.0005
0 -0.00288647 -0.0005
0 -0.00229553 0.0005
0 -0.00229553 -0.0005
0 -0.00175363 0.0005
0 -0.00175363 -0.0005
0 -0.00125671 0.0005
0 -0.00125671 -0.0005
0 -0.000801036 0.0005
0 -0.000801036 -0.0005
0 -0.000383178 0.0005
0 -0.000383178 -0.0005
0 -0.0254 -0.0005
0 -0.0254 0.0005
0 -0.0242667 0.0005
0 -0.0242667 -0.0005
0 -0.0231333 0.0005
0 -0.0231333 -0.0005
0 -0.022 0.0005
0 -0.022 -0.0005
0 -0.0208667 0.0005
0 -0.0208667 -0.0005
0 -0.0197333 0.0005
0 -0.0197333 -0.0005
0 -0.0186 0.0005
0 -0.0186 -0.0005
0 -0.0174667 0.0005
0 -0.0174667 -0.0005
0 -0.0163333 0.0005
0 -0.0163333 -0.0005
0 -0.0152 0.0005
0 -0.0152 -0.0005
0 -0.0140667 0.0005
0 -0.0140667 -0.0005
0 -0.0129333 0.0005
0 -0.0129333 -0.0005
0 -0.0118 0.0005
0 -0.0118 -0.0005
0 -0.0106667 0.0005
0 -0.0106667 -0.0005
0 -0.00953333 0.0005
0 -0.00953333 -0.0005
0 -0.0084 0.0005
0 -0.0084 -0.0005
0 -0.00726667 0.0005
0 -0.00726667 -0.0005
0 -0.00613333 0.0005
0 -0.00613333 -0.0005
0.000528387 -0.0254 -0.0005
0.000528387 -0.0254 0.0005
0.00106088 -0.0254 -0.0005
0.00106088 -0.0254 0.0005
0.00159752 -0.0254 -0.0005
0.00159752 -0.0254 0.0005
0.00213833 -0.0254 -0.0005
0.00213833 -0.0254 0.0005
0.00268334 -0.0254 -0.0005
0.00268334 -0.0254 0.0005
0.00323259 -0.0254 -0.0005
0.00323259 -0.0254 0.0005
0.00378611 -0.0254 -0.0005
0.00378611 -0.0254 0.0005
0.00434393 -0.0254 -0.0005
0.00434393 -0.0254 0.0005
0.00490609 -0.0254 -0.0005
0.00490609 -0.0254 0.0005
0.00547262 -0.0254 -0.0005
0.00547262 -0.0254 0.0005
0.00604356 -0.0254 -0.0005
0.00604356 -0.0254 0.0005
0.00661893 -0.0254 -0.0005
0.00661893 -0.0254 0.0005
0.00719878 -0.0254 -0.0005
0.00719878 -0.0254 0.0005
0.00778313 -0.0254 -0.0005
0.00778313 -0.0254 0.0005
0.00837203 -0.0254 -0.0005
0.00837203 -0.0254 0.0005
0.00896551 -0.0254 -0.0005
0.00896551 -0.0254 0.0005
0.0095636 -0.0254 -0.0005
0.0095636 -0.0254 0.0005
0.0101663 -0.0254 -0.0005
0.0101663 -0.0254 0.0005
0.0107738 -0.0254 -0.0005
0.0107738 -0.0254 0.0005
0.0113859 -0.0254 -0.0005
0.0113859 -0.0254 0.0005
0.0120028 -0.0254 -0.0005
0.0120028 -0.0254 0.0005
0.0126245 -0.0254 -0.0005
0.0126245 -0.0254 0.0005
0.0132511 -0.0254 -0.0005
0.0132511 -0.0254 0.0005
0.0138825 -0.0254 -0.0005
0.0138825 -0.0254 0.0005
0.0145188 -0.0254 -0.0005
0.0145188 -0.0254 0.0005
0.0151601 -0.0254 -0.0005
0.0151601 -0.0254 0.0005
0.0158063 -0.0254 -0.0005
0.0158063 -0.0254 0.0005
0.0164576 -0.0254 -0.0005
0.0164576 -0.0254 0.0005
0.0171139 -0.0254 -0.0005
0.0171139 -0.0254 0.0005
0.0177754 -0.0254 -0.0005
0.0177754 -0.0254 0.0005
0.018442 -0.0254 -0.0005
0.018442 -0.0254 0.0005
0.0191137 -0.0254 -0.0005
0.0191137 -0.0254 0.0005
0.0197907 -0.0254 -0.0005
0.0197907 -0.0254 0.0005
0.020473 -0.0254 -0.0005
0.020473 -0.0254 0.0005
0.0211606 -0.0254 -0.0005
0.0211606 -0.0254 0.0005
0.0218535 -0.0254 -0.0005
0.0218535 -0.0254 0.0005
0.0225517 -0.0254 -0.0005
0.0225517 -0.0254 0.0005
0.0232555 -0.0254 -0.0005
0.0232555 -0.0254 0.0005
0.0239647 -0.0254 -0.0005
0.0239647 -0.0254 0.0005
0.0246794 -0.0254 -0.0005
0.0246794 -0.0254 0.0005
0.0253996 -0.0254 -0.0005
0.0253996 -0.0254 0.0005
0.0261255 -0.0254 -0.0005
0.0261255 -0.0254 0.0005
0.026857 -0.0254 -0.0005
0.026857 -0.0254 0.0005
0.0275942 -0.0254 -0.0005
0.0275942 -0.0254 0.0005
0.0283371 -0.0254 -0.0005
0.0283371 -0.0254 0.0005
0.0290858 -0.0254 -0.0005
0.0290858 -0.0254 0.0005
0.0298403 -0.0254 -0.0005
0.0298403 -0.0254 0.0005
0.0306007 -0.0254 -0.0005
0.0306007 -0.0254 0.0005
0.031367 -0.0254 -0.0005
0.031367 -0.0254 0.0005
0.0321393 -0.0254 -0.0005
0.0321393 -0.0254 0.0005
0.0329175 -0.0254 -0.0005
0.0329175 -0.0254 0.0005
0.0337019 -0.0254 -0.0005
0.0337019 -0.0254 0.0005
0.0344923 -0.0254 -0.0005
0.0344923 -0.0254 0.0005
0.0352888 -0.0254 -0.0005
0.0352888 -0.0254 0.0005
0.0360916 -0.0254 -0.0005
0.0360916 -0.0254 0.0005
0.0369006 -0.0254 -0.0005
0.0369006 -0.0254 0.0005
0.0377158 -0.0254 -0.0005
0.0377158 -0.0254 0.0005
0.0385375 -0.0254 -0.0005
0.0385375 -0.0254 0.0005
0.0393655 -0.0254 -0.0005
0.0393655 -0.0254 0.0005
0.0401999 -0.0254 -0.0005
0.0401999 -0.0254 0.0005
0.0410408 -0.0254 -0.0005
0.0410408 -0.0254 0.0005
0.0418883 -0.0254 -0.0005
0.0418883 -0.0254 0.0005
0.0427424 -0.0254 -0.0005
0.0427424 -0.0254 0.0005
0.0436031 -0.0254 -0.0005
0.0436031 -0.0254 0.0005
0.0444704 -0.0254 -0.0005
0.0444704 -0.0254 0.0005
0.0453446 -0.0254 -0.0005
0.0453446 -0.0254 0.0005
0.0462255 -0.0254 -0.0005
0.0462255 -0.0254 0.0005
0.0471133 -0.0254 -0.0005
0.0471133 -0.0254 0.0005
0.048008 -0.0254 -0.0005
0.048008 -0.0254 0.0005
0.0489096 -0.0254 -0.0005
0.0489096 -0.0254 0.0005
0.0498183 -0.0254 -0.0005
0.0498183 -0.0254 0.0005
0.050734 -0.0254 -0.0005
0.050734 -0.0254 0.0005
0.0516568 -0.0254 -0.0005
0.0516568 -0.0254 0.0005
0.0525868 -0.0254 -0.0005
0.0525868 -0.0254 0.0005
0.053524 -0.0254 -0.0005
0.053524 -0.0254 0.0005
0.0544686 -0.0254 -0.0005
0.0544686 -0.0254 0.0005
0.0554204 -0.0254 -0.0005
0.0554204 -0.0254 0.0005
0.0563797 -0.0254 -0.0005
0.0563797 -0.0254 0.0005
0.0573464 -0.0254 -0.0005
0.0573464 -0.0254 0.0005
0.0583206 -0.0254 -0.0005
0.0583206 -0.0254 0.0005
0.0593025 -0.0254 -0.0005
0.0593025 -0.0254 0.0005
0.0602919 -0.0254 -0.0005
0.0602919 -0.0254 0.0005
0.0612891 -0.0254 -0.0005
0.0612891 -0.0254 0.0005
0.0622939 -0.0254 -0.0005
0.0622939 -0.0254 0.0005
0.0633067 -0.0254 -0.0005
0.0633067 -0.0254 0.0005
0.0643272 -0.0254 -0.0005
0.0643272 -0.0254 0.0005
0.0653557 -0.0254 -0.0005
0.0653557 -0.0254 0.0005
0.0663923 -0.0254 -0.0005
0.0663923 -0.0254 0.0005
0.0674368 -0.0254 -0.0005
0.0674368 -0.0254 0.0005
0.0684895 -0.0254 -0.0005
0.0684895 -0.0254 0.0005
0.0695504 -0.0254 -0.0005
0.0695504 -0.0254 0.0005
0.0706195 -0.0254 -0.0005
0.0706195 -0.0254 0.0005
0.0716969 -0.0254 -0.0005
0.0716969 -0.0254 0.0005
0.0727828 -0.0254 -0.0005
0.0727828 -0.0254 0.0005
0.073877 -0.0254 -0.0005
0.073877 -0.0254 0.0005
0.0749798 -0.0254 -0.0005
0.0749798 -0.0254 0.0005
0.0760911 -0.0254 -0.0005
0.0760911 -0.0254 0.0005
0.0772111 -0.0254 -0.0005
0.0772111 -0.0254 0.0005
0.0783398 -0.0254 -0.0005
0.0783398 -0.0254 0.0005
0.0794772 -0.0254 -0.0005
0.0794772 -0.0254 0.0005
0.0806235 -0.0254 -0.0005
0.0806235 -0.0254 0.0005
0.0817787 -0.0254 -0.0005
0.0817787 -0.0254 0.0005
0.0829429 -0.0254 -0.0005
0.0829429 -0.0254 0.0005
0.0841162 -0.0254 -0.0005
0.0841162 -0.0254 0.0005
0.0852985 -0.0254 -0.0005
0.0852985 -0.0254 0.0005
0.0864901 -0.0254 -0.0005
0.0864901 -0.0254 0.0005
0.0876909 -0.0254 -0.0005
0.0876909 -0.0254 0.0005
0.0889011 -0.0254 -0.0005
0.0889011 -0.0254 0.0005
0.0901207 -0.0254 -0.0005
0.0901207 -0.0254 0.0005
0.0913497 -0.0254 -0.0005
0.0913497 -0.0254 0.0005
0.0925883 -0.0254 -0.0005
0.0925883 -0.0254 0.0005
0.0938366 -0.0254 -0.0005
0.0938366 -0.0254 0.0005
0.0950945 -0.0254 -0.0005
0.0950945 -0.0254 0.0005
0.0963622 -0.0254 -0.0005
0.0963622 -0.0254 0.0005
0.0976398 -0.0254 -0.0005
0.0976398 -0.0254 0.0005
0.0989273 -0.0254 -0.0005
0.0989273 -0.0254 0.0005
0.100225 -0.0254 -0.0005
0.100225 -0.0254 0.0005
0.101532 -0.0254 -0.0005
0.101532 -0.0254 0.0005
0.10285 -0.0254 -0.0005
0.10285 -0.0254 0.0005
0.104178 -0.0254 -0.0005
0.104178 -0.0254 0.0005
0.105517 -0.0254 -0.0005
0.105517 -0.0254 0.0005
0.106865 -0.0254 -0.0005
0.106865 -0.0254 0.0005
0.108225 -0.0254 -0.0005
0.108225 -0.0254 0.0005
0.109594 -0.0254 -0.0005
0.109594 -0.0254 0.0005
0.110975 -0.0254 -0.0005
0.110975 -0.0254 0.0005
0.112366 -0.0254 -0.0005
0.112366 -0.0254 0.0005
0.113768 -0.0254 -0.0005
0.113768 -0.0254 0.0005
0.115181 -0.0254 -0.0005
0.115181 -0.0254 0.0005
0.116605 -0.0254 -0.0005
0.116605 -0.0254 0.0005
0.11804 -0.0254 -0.0005
0.11804 -0.0254 0.0005
0.119486 -0.0254 -0.0005
0.119486 -0.0254 0.0005
0.120943 -0.0254 -0.0005
0.120943 -0.0254 0.0005
0.122412 -0.0254 -0.0005
0.122412 -0.0254 0.0005
0.123892 -0.0254 -0.0005
0.123892 -0.0254 0.0005
0.125384 -0.0254 -0.0005
0.125384 -0.0254 0.0005
0.126887 -0.0254 -0.0005
0.126887 -0.0254 0.0005
0.128402 -0.0254 -0.0005
0.128402 -0.0254 0.0005
0.129928 -0.0254 -0.0005
0.129928 -0.0254 0.0005
0.131467 -0.0254 -0.0005
0.131467 -0.0254 0.0005
0.133017 -0.0254 -0.0005
0.133017 -0.0254 0.0005
0.13458 -0.0254 -0.0005
0.13458 -0.0254 0.0005
0.136155 -0.0254 -0.0005
0.136155 -0.0254 0.0005
0.137742 -0.0254 -0.0005
0.137742 -0.0254 0.0005
0.139341 -0.0254 -0.0005
0.139341 -0.0254 0.0005
0.140953 -0.0254 -0.0005
0.140953 -0.0254 0.0005
0.142577 -0.0254 -0.0005
0.142577 -0.0254 0.0005
0.144214 -0.0254 -0.0005
0.144214 -0.0254 0.0005
0.145863 -0.0254 -0.0005
0.145863 -0.0254 0.0005
0.147526 -0.0254 -0.0005
0.147526 -0.0254 0.0005
0.149201 -0.0254 -0.0005
0.149201 -0.0254 0.0005
0.15089 -0.0254 -0.0005
0.15089 -0.0254 0.0005
0.152591 -0.0254 -0.0005
0.152591 -0.0254 0.0005
0.154306 -0.0254 -0.0005
0.154306 -0.0254 0.0005
0.156034 -0.0254 -0.0005
0.156034 -0.0254 0.0005
0.157775 -0.0254 -0.0005
0.157775 -0.0254 0.0005
0.159531 -0.0254 -0.0005
0.159531 -0.0254 0.0005
0.161299 -0.0254 -0.0005
0.161299 -0.0254 0.0005
0.163082 -0.0254 -0.0005
0.163082 -0.0254 0.0005
0.164878 -0.0254 -0.0005
0.164878 -0.0254 0.0005
0.166688 -0.0254 -0.0005
0.166688 -0.0254 0.0005
0.168513 -0.0254 -0.0005
0.168513 -0.0254 0.0005
0.170351 -0.0254 -0.0005
0.170351 -0.0254 0.0005
0.172204 -0.0254 -0.0005
0.172204 -0.0254 0.0005
0.174071 -0.0254 -0.0005
0.174071 -0.0254 0.0005
0.175953 -0.0254 -0.0005
0.175953 -0.0254 0.0005
0.177849 -0.0254 -0.0005
0.177849 -0.0254 0.0005
0.17976 -0.0254 -0.0005
0.17976 -0.0254 0.0005
0.181686 -0.0254 -0.0005
0.181686 -0.0254 0.0005
0.183627 -0.0254 -0.0005
0.183627 -0.0254 0.0005
0.185583 -0.0254 -0.0005
0.185583 -0.0254 0.0005
0.187555 -0.0254 -0.0005
0.187555 -0.0254 0.0005
0.189541 -0.0254 -0.0005
0.189541 -0.0254 0.0005
0.191543 -0.0254 -0.0005
0.191543 -0.0254 0.0005
0.193561 -0.0254 -0.0005
0.193561 -0.0254 0.0005
0.195594 -0.0254 -0.0005
0.195594 -0.0254 0.0005
0.197643 -0.0254 -0.0005
0.197643 -0.0254 0.0005
0.199708 -0.0254 -0.0005
0.199708 -0.0254 0.0005
0.201789 -0.0254 -0.0005
0.201789 -0.0254 0.0005
0.203886 -0.0254 -0.0005
0.203886 -0.0254 0.0005
0.206 -0.0254 -0.0005
0.206 -0.0254 0.0005
0.208047 -0.0251856 -0.0005
0.208047 -0.0251856 0.0005
0.210173 -0.0249628 -0.0005
0.210173 -0.0249628 0.0005
0.212382 -0.0247314 -0.0005
0.212382 -0.0247314 0.0005
0.214677 -0.024491 -0.0005
0.214677 -0.024491 0.0005
0.217061 -0.0242412 -0.0005
0.217061 -0.0242412 0.0005
0.219538 -0.0239817 -0.0005
0.219538 -0.0239817 0.0005
0.222112 -0.0237121 -0.0005
0.222112 -0.0237121 0.0005
0.224785 -0.023432 -0.0005
0.224785 -0.023432 0.0005
0.227563 -0.023141 -0.0005
0.227563 -0.023141 0.0005
0.230449 -0.0228387 -0.0005
0.230449 -0.0228387 0.0005
0.233447 -0.0225246 -0.0005
0.233447 -0.0225246 0.0005
0.236562 -0.0221983 -0.0005
0.236562 -0.0221983 0.0005
0.239797 -0.0218593 -0.0005
0.239797 -0.0218593 0.0005
0.243159 -0.0215071 -0.0005
0.243159 -0.0215071 0.0005
0.246652 -0.0211412 -0.0005
0.246652 -0.0211412 0.0005
0.250281 -0.0207611 -0.0005
0.250281 -0.0207611 0.0005
0.254051 -0.0203661 -0.0005
0.254051 -0.0203661 0.0005
0.257967 -0.0199558 -0.0005
0.257967 -0.0199558 0.0005
0.262036 -0.0195295 -0.0005
0.262036 -0.0195295 0.0005
0.266264 -0.0190867 -0.0005
0.266264 -0.0190867 0.0005
0.270655 -0.0186266 -0.0005
0.270655 -0.0186266 0.0005
0.275218 -0.0181486 -0.0005
0.275218 -0.0181486 0.0005
0.279959 -0.017652 -0.0005
0.279959 -0.017652 0.0005
0.284883 -0.017136 -0.0005
0.284883 -0.017136 0.0005
0.29 -0.0166 -0.0005
0.29 -0.0166 0.0005

POLYGONS 250 1250
4 0 1 2 3
4 1 4 5 2
4 4 6 7 5
4 6 8 9 7
4 8 10 11 9
4 10 12 13 11
4 12 14 15 13
4 14 16 17 15
4 16 18 19 17
4 18 20 21 19
4 20 22 23 21
4 22 24 25 23
4 24 26 27 25
4 26 28 29 27
4 28 30 31 29
4 30 32 33 31
4 32 34 35 33
4 34 36 37 35
4 38 39 40 41
4 41 40 42 43
4 43 42 44 45
4 45 44 46 47
4 47 46 48 49
4 49 48 50 51
4 51 50 52 53
4 53 52 54 55
4 55 54 37 36
4 56 57 58 59
4 59 58 60 61
4 61 60 62 63
4 63 62 64 65
4 65 64 66 67
4 67 66 68 69
4 69 68 70 71
4 71 70 72 73
4 73 72 74 75
4 75 74 76 77
4 77 76 78 79
4 79 78 80 81
4 81 80 82 83
4 83 82 84 85
4 85 84 86 87
4 87 86 88 89
4 89 88 90 91
4 91 90 39 38
4 56 92 93 57
4 92 94 95 93
4 94 96 97 95
4 96 98 99 97
4 98 100 101 99
4 100 102 103 101
4 102 104 105 103
4 104 106 107 105
4 106 108 109 107
4 108 110 111 109
4 110 112 113 111
4 112 114 115 113
4 114 116 117 115
4 116 118 119 117
4 118 120 121 119
4 120 122 123 121
4 122 124 125 123
4 124 126 127 125
4 126 128 129 127
4 128 130 131 129
4 130 132 133 131
4 132 134 135 133
4 134 136 137 135
4 136 138 139 137
4 138 140 141 139
4 140 142 143 141
4 142 144 145 143
4 144 146 147 145
4 146 148 149 147
4 148 150 151 149
4 150 152 153 151
4 152 154 155 153
4 154 156 157 155
4 156 158 159 157
4 158 160 161 159
4 160 162 163 161
4 162 164 165 163
4 164 166 167 165
4 166 168 169 167
4 168 170 171 169
4 170 172 173 171
4 172 174 175 173
4 174 176 177 175
4 176 178 179 177
4 178 180 181 179
4 180 182 183 181
4 182 184 185 183
4 184 186 187 185
4 186 188 189 187
4 188 190 191 189
4 190 192 193 191
4 192 194 195 193
4 194 196 197 195
4 196 198 199 197
4 198 200 201 199
4 200 202 203 201
4 202 204 205 203
4 204 206 207 205
4 206 208 209 207
4 208 210 211 209
4 210 212 213 211
4 212 214 215 213
4 214 216 217 215
4 216 218 219 217
4 218 220 221 219
4 220 222 223 221
4 222 224 225 223
4 224 226 227 225
4 226 228 229 227
4 228 230 231 229
4 230 232 233 231
4 232 234 235 233
4 234 236 237 235
4 236 238 239 237
4 238 240 241 239
4 240 242 243 241
4 242 244 245 243
4 244 246 247 245
4 246 248 249 247
4 248 250 251 249
4 250 252 253 251
4 252 254 255 253
4 254 256 257 255
4 256 258 259 257
4 258 260 261 259
4 260 262 263 261
4 262 264 265 263
4 264 266 267 265
4 266 268 269 267
4 268 270 271 269
4 270 272 273 271
4 272 274 275 273
4 274 276 277 275
4 276 278 279 277
4 278 280 281 279
4 280 282 283 281
4 282 284 285 283
4 284 286 287 285
4 286 288 289 287
4 288 290 291 289
4 290 292 293 291
4 292 294 295 293
4 294 296 297 295
4 296 298 299 297
4 298 300 301 299
4 300 302 303 301
4 302 304 305 303
4 304 306 307 305
4 306 308 309 307
4 308 310 311 309
4 310 312 313 311
4 312 314 315 313
4 314 316 317 315
4 316 318 319 317
4 318 320 321 319
4 320 322 323 321
4 322 324 325 323
4 324 326 327 325
4 326 328 329 327
4 328 330 331 329
4 330 332 333 331
4 332 334 335 333
4 334 336 337 335
4 336 338 339 337
4 338 340 341 339
4 340 342 343 341
4 342 344 345 343
4 344 346 347 345
4 346 348 349 347
4 348 350 351 349
4 350 352 353 351
4 352 354 355 353
4 354 356 357 355
4 356 358 359 357
4 358 360 361 359
4 360 362 363 361
4 362 364 365 363
4 364 366 367 365
4 366 368 369 367
4 368 370 371 369
4 370 372 373 371
4 372 374 375 373
4 374 376 377 375
4 376 378 379 377
4 378 380 381 379
4 380 382 383 381
4 382 384 385 383
4 384 386 387 385
4 386 388 389 387
4 388 390 391 389
4 390 392 393 391
4 392 394 395 393
4 394 396 397 395
4 396 398 399 397
4 398 400 401 399
4 400 402 403 401
4 402 404 405 403
4 404 406 407 405
4 406 408 409 407
4 408 410 411 409
4 410 412 413 411
4 412 414 415 413
4 414 416 417 415
4 416 418 419 417
4 418 420 421 419
4 420 422 423 421
4 422 424 425 423
4 424 426 427 425
4 426 428 429 427
4 428 430 431 429
4 430 432 433 431
4 432 434 435 433
4 434 436 437 435
4 436 438 439 437
4 438 440 441 439
4 440 442 443 441
4 442 444 445 443
4 444 446 447 445
4 446 448 449 447
4 448 450 451 449
4 450 452 453 451
4 452 454 455 453
4 454 456 457 455
4 456 458 459 457
4 458 460 461 459
4 460 462 463 461
4 462 464 465 463
4 464 466 467 465
4 466 468 469 467
4 468 470 471 469
4 470 472 473 471
4 472 474 475 473
4 474 476 477 475
4 476 478 479 477
4 478 480 481 479
4 480 482 483 481
4 482 484 485 483
4 484 486 487 485
4 486 488 489 487
4 488 490 491 489
4 490 492 493 491
4 492 494 495 493
4 494 496 497 495
4 496 498 499 497
4 498 500 501 499
POINT_DATA 502
FIELD attributes 1
U 3 502 float
3.19187 -0.021033 0.0447359
1.58731 -0.00978503 0.0220459
1.58731 -0.00978503 0.0220459
3.19187 -0.021033 0.0447359
0.0239404 0.000637237 0
0.0239404 0.000637237 0
0.0178775 7.93107e-06 0
0.0178775 7.93107e-06 0
0.0150334 -8.6599e-05 0
0.0150334 -8.6599e-05 0
0.0141395 -4.80207e-05 0
0.0141395 -4.80207e-05 0
0.0140569 -8.71027e-05 0
0.0140569 -8.71027e-05 0
0.0138587 -6.03437e-06 0
0.0138587 -6.03437e-06 0
0.0135001 6.76395e-05 0
0.0135001 6.76395e-05 0
0.0144615 -0.000162186 0
0.0144615 -0.000162186 0
0.0160429 -0.000208228 0
0.0160429 -0.000208228 0
0.0158781 0.000159953 0
0.0158781 0.000159953 0
0.0159617 4.76615e-05 0
0.0159617 4.76615e-05 0
0.0178726 -0.000457378 0
0.0178726 -0.000457378 0
0.0213056 -0.000392646 0
0.0213056 -0.000392646 0
0.0215373 -9.53748e-05 0
0.0215373 -9.53748e-05 0
0.0237182 -0.000221186 0
0.0237182 -0.000221186 0
0.0245564 -0.000462048 0
0.0245564 -0.000462048 0
0.0152886 -0.00162988 0
0.0152886 -0.00162988 0
0.000286083 0.0226066 0
0.000286083 0.0226066 0
0.00135597 0.0227366 0
0.00135597 0.0227366 0
0.00231977 0.0205491 0
0.00231977 0.0205491 0
0.00306904 0.0160075 4.03507e-21
0.00306904 0.0160075 4.03507e-21
0.00287772 0.0101809 -4.46835e-22
0.00287772 0.0101809 -4.46835e-22
0.00216723 0.00504123 5.39692e-22
0.00216723 0.00504123 5.39692e-22
0.000440342 0.000198861 -5.18381e-22
0.000440342 0.000198861 -5.18381e-22
-0.00127297 -0.000783867 -5.20386e-21
-0.00127297 -0.000783867 -5.20386e-21
0.00425842 -0.000837925 0
0.00425842 -0.000837925 0
1.51342e-05 -4.67082e-05 0
1.51342e-05 -4.67082e-05 0
1.69987e-05 -0.000173256 0
1.69987e-05 -0.000173256 0
1.02392e-05 -0.000379779 0
1.02392e-05 -0.000379779 0
-1.03005e-05 -0.000510568 0
-1.03005e-05 -0.000510568 0
-3.59216e-05 -0.000573437 1.04322e-21
-3.59216e-05 -0.000573437 1.04322e-21
-6.2789e-05 -0.000552006 2.9692e-25
-6.2789e-05 -0.000552006 2.9692e-25
-8.88908e-05 -0.000432992 -1.04292e-21
-8.88908e-05 -0.000432992 -1.04292e-21
-0.000114863 -0.000204619 -2.08587e-21
-0.000114863 -0.000204619 -2.08587e-21
-0.000140421 0.000148643 -4.53362e-25
-0.000140421 0.000148643 -4.53362e-25
-0.000167151 0.000653611 2.08542e-21
-0.000167151 0.000653611 2.08542e-21
-0.000197869 0.00133876 0
-0.000197869 0.00133876 0
-0.000241863 0.00228666 0
-0.000241863 0.00228666 0
-0.000302058 0.00353551 0
-0.000302058 0.00353551 0
-0.000385278 0.00540465 0
-0.000385278 0.00540465 0
-0.000534354 0.00774082 0
-0.000534354 0.00774082 0
-0.000508939 0.0113733 0
-0.000508939 0.0113733 0
-0.000573429 0.0149768 0
-0.000573429 0.0149768 0
-0.00060376 0.0190179 0
-0.00060376 0.0190179 0
4.54602e-05 -5.85232e-05 0
4.54602e-05 -5.85232e-05 0
0.000112769 -7.26582e-05 0
0.000112769 -7.26582e-05 0
0.000187681 -7.62288e-05 0
0.000187681 -7.62288e-05 0
0.00026512 -7.87757e-05 0
0.00026512 -7.87757e-05 0
0.000345764 -8.14722e-05 0
0.000345764 -8.14722e-05 0
0.000429935 -8.44503e-05 1.1665e-22
0.000429935 -8.44503e-05 1.1665e-22
0.000518008 -8.77003e-05 1.01799e-24
0.000518008 -8.77003e-05 1.01799e-24
0.000610333 -9.11848e-05 -1.16058e-22
0.000610333 -9.11848e-05 -1.16058e-22
0.000707219 -9.4854e-05 -1.14244e-22
0.000707219 -9.4854e-05 -1.14244e-22
0.000808927 -9.86508e-05 -1.1446e-22
0.000808927 -9.86508e-05 -1.1446e-22
0.000915665 -0.000102512 0
0.000915665 -0.000102512 0
0.00102758 -0.000106371 0
0.00102758 -0.000106371 0
0.00114475 -0.000110153 1.11084e-22
0.00114475 -0.000110153 1.11084e-22
0.00126717 -0.000113788 1.11303e-22
0.00126717 -0.000113788 1.11303e-22
0.00139476 -0.00011721 0
0.00139476 -0.00011721 0
0.00152739 -0.000120354 -1.08741e-22
0.00152739 -0.000120354 -1.08741e-22
0.00166483 -0.000123162 -1.08963e-22
0.00166483 -0.000123162 -1.08963e-22
0.0018068 -0.000125577 0
0.0018068 -0.000125577 0
0.00195296 -0.00012756 0
0.00195296 -0.00012756 0
0.00210291 -0.00012908 1.0564e-22
0.00210291 -0.00012908 1.0564e-22
0.00225617 -0.000130109 1.05866e-22
0.00225617 -0.000130109 1.05866e-22
0.00241226 -0.000130621 1.04096e-22
0.00241226 -0.000130621 1.04096e-22
0.00257071 -0.000130612 1.04323e-22
0.00257071 -0.000130612 1.04323e-22
0.00273098 -0.000130091 0
0.00273098 -0.000130091 0
0.00289248 -0.000129071 1.01784e-22
0.00289248 -0.000129071 1.01784e-22
0.00305464 -0.000127559 1.02014e-22
0.00305464 -0.000127559 1.02014e-22
0.00321698 -0.000125572 -1.00245e-22
0.00321698 -0.000125572 -1.00245e-22
0.003379 -0.000123146 -1.00476e-22
0.003379 -0.000123146 -1.00476e-22
0.00354011 -0.000120332 9.87075e-23
0.00354011 -0.000120332 9.87075e-23
0.00369978 -0.000117161 9.89404e-23
0.00369978 -0.000117161 9.89404e-23
0.00385766 -0.000113646 0
0.00385766 -0.000113646 0
0.00401334 -0.000109833 0
0.00401334 -0.000109833 0
0.00416633 -0.000105799 0
0.00416633 -0.000105799 0
0.00431625 -0.000101586 0
0.00431625 -0.000101586 0
0.00446289 -9.71922e-05 -9.41118e-23
0.00446289 -9.71922e-05 -9.41118e-23
0.00460601 -9.26553e-05 -9.43485e-23
0.00460601 -9.26553e-05 -9.43485e-23
0.00474524 -8.80557e-05 1.85177e-22
0.00474524 -8.80557e-05 1.85177e-22
0.00488035 -8.34374e-05 1.85653e-22
0.00488035 -8.34374e-05 1.85653e-22
0.0050113 -7.87915e-05 -1.82143e-22
0.0050113 -7.87915e-05 -1.82143e-22
0.00513799 -7.41346e-05 -1.82621e-22
0.00513799 -7.41346e-05 -1.82621e-22
0.0052602 -6.95312e-05 0
0.0052602 -6.95312e-05 0
0.00537784 -6.50225e-05 1.77621e-22
0.00537784 -6.50225e-05 1.77621e-22
0.00549096 -6.05977e-05 1.78101e-22
0.00549096 -6.05977e-05 1.78101e-22
0.00559959 -5.62556e-05 1.74629e-22
0.00559959 -5.62556e-05 1.74629e-22
0.00570362 -5.20364e-05 1.97012e-24
0.00570362 -5.20364e-05 1.97012e-24
0.00580306 -4.79738e-05 -1.73623e-22
0.00580306 -4.79738e-05 -1.73623e-22
0.00589805 -4.40591e-05 -1.7018e-22
0.00589805 -4.40591e-05 -1.7018e-22
0.00598871 -4.02795e-05 -3.39372e-22
0.00598871 -4.02795e-05 -3.39372e-22
0.006075 -3.66537e-05 -1.69192e-22
0.006075 -3.66537e-05 -1.69192e-22
0.00615697 -3.32047e-05 0
0.00615697 -3.32047e-05 0
0.0062348 -2.99269e-05 0
0.0062348 -2.99269e-05 0
0.00630868 -2.6803e-05 0
0.00630868 -2.6803e-05 0
0.00637863 -2.38356e-05 0
0.00637863 -2.38356e-05 0
0.00644472 -2.10375e-05 1.60014e-22
0.00644472 -2.10375e-05 1.60014e-22
0.00650711 -1.84056e-05 1.605e-22
0.00650711 -1.84056e-05 1.605e-22
0.00656601 -1.59241e-05 -1.57171e-22
0.00656601 -1.59241e-05 -1.57171e-22
0.00662152 -1.35863e-05 -1.57658e-22
0.00662152 -1.35863e-05 -1.57658e-22
0.0066737 -1.13969e-05 0
0.0066737 -1.13969e-05 0
0.00672268 -9.35267e-06 1.52961e-22
0.00672268 -9.35267e-06 1.52961e-22
0.00676865 -7.44033e-06 1.53448e-22
0.00676865 -7.44033e-06 1.53448e-22
0.00681176 -5.6511e-06 -1.50193e-22
0.00681176 -5.6511e-06 -1.50193e-22
0.00685208 -3.98548e-06 -1.5068e-22
0.00685208 -3.98548e-06 -1.5068e-22
0.0068897 -2.44048e-06 0
0.0068897 -2.44048e-06 0
0.00692478 -1.00363e-06 0
0.00692478 -1.00363e-06 0
0.00695747 3.35627e-07 1.44748e-22
0.00695747 3.35627e-07 1.44748e-22
0.00698786 1.57835e-06 1.45234e-22
0.00698786 1.57835e-06 1.45234e-22
0.00701602 2.72458e-06 0
0.00701602 2.72458e-06 0
0.00704207 3.78321e-06 1.40747e-22
0.00704207 3.78321e-06 1.40747e-22
0.00706614 4.7676e-06 1.41232e-22
0.00706614 4.7676e-06 1.41232e-22
0.00708834 5.68356e-06 1.38119e-22
0.00708834 5.68356e-06 1.38119e-22
0.00710873 6.52943e-06 1.38604e-22
0.00710873 6.52943e-06 1.38604e-22
0.00712738 7.30785e-06 0
0.00712738 7.30785e-06 0
0.0071444 8.03043e-06 0
0.0071444 8.03043e-06 0
0.00715991 8.70733e-06 -1.32958e-22
0.00715991 8.70733e-06 -1.32958e-22
0.00717398 9.33312e-06 -1.33441e-22
0.00717398 9.33312e-06 -1.33441e-22
0.0071867 9.88159e-06 0
0.0071867 9.88159e-06 0
0.00719809 1.03192e-05 -1.29171e-22
0.00719809 1.03192e-05 -1.29171e-22
0.0072082 1.06652e-05 -2.57575e-22
0.0072082 1.06652e-05 -2.57575e-22
0.00721711 1.09657e-05 -1.28403e-22
0.00721711 1.09657e-05 -1.28403e-22
0.00722489 1.1232e-05 -1.25453e-22
0.00722489 1.1232e-05 -1.25453e-22
0.0072316 1.14633e-05 -1.25931e-22
0.0072316 1.14633e-05 -1.25931e-22
0.0072373 1.16637e-05 -2.46028e-22
0.0072373 1.16637e-05 -2.46028e-22
0.00724207 1.18411e-05 -2.46979e-22
0.00724207 1.18411e-05 -2.46979e-22
0.00724598 1.20002e-05 -2.4121e-22
0.00724598 1.20002e-05 -2.4121e-22
0.00724902 1.21414e-05 -2.42158e-22
0.00724902 1.21414e-05 -2.42158e-22
0.00725124 1.22733e-05 2.36453e-22
0.00725124 1.22733e-05 2.36453e-22
0.00725268 1.24e-05 2.37396e-22
0.00725268 1.24e-05 2.37396e-22
0.00725341 1.25176e-05 0
0.00725341 1.25176e-05 0
0.00725347 1.26282e-05 0
0.00725347 1.26282e-05 0
0.00725289 1.27286e-05 -2.27118e-22
0.00725289 1.27286e-05 -2.27118e-22
0.00725167 1.28138e-05 -2.28051e-22
0.00725167 1.28138e-05 -2.28051e-22
0.00724984 1.28823e-05 2.22539e-22
0.00724984 1.28823e-05 2.22539e-22
0.00724747 1.294e-05 2.23466e-22
0.00724747 1.294e-05 2.23466e-22
0.00724459 1.29932e-05 -2.18017e-22
0.00724459 1.29932e-05 -2.18017e-22
0.00724122 1.30397e-05 -4.34717e-22
0.00724122 1.30397e-05 -4.34717e-22
0.00723735 1.30745e-05 -4.30249e-22
0.00723735 1.30745e-05 -4.30249e-22
0.00723303 1.30986e-05 -2.14468e-22
0.00723303 1.30986e-05 -2.14468e-22
0.00722827 1.31172e-05 0
0.00722827 1.31172e-05 0
0.00722313 1.31344e-05 0
0.00722313 1.31344e-05 0
0.00721759 1.31509e-05 0
0.00721759 1.31509e-05 0
0.00721168 1.3163e-05 0
0.00721168 1.3163e-05 0
0.00720539 1.31673e-05 0
0.00720539 1.31673e-05 0
0.00719875 1.31641e-05 0
0.00719875 1.31641e-05 0
0.0071918 1.31572e-05 0
0.0071918 1.31572e-05 0
0.00718455 1.31503e-05 1.94141e-22
0.00718455 1.31503e-05 1.94141e-22
0.007177 1.31433e-05 3.87076e-22
0.007177 1.31433e-05 3.87076e-22
0.00716917 1.31332e-05 1.92931e-22
0.00716917 1.31332e-05 1.92931e-22
0.00716104 1.31176e-05 0
0.00716104 1.31176e-05 0
0.00715265 1.30969e-05 0
0.00715265 1.30969e-05 0
0.00714401 1.30739e-05 1.83817e-22
0.00714401 1.30739e-05 1.83817e-22
0.00713514 1.30512e-05 1.84681e-22
0.00713514 1.30512e-05 1.84681e-22
0.00712605 1.3029e-05 0
0.00712605 1.3029e-05 0
0.00711673 1.30055e-05 0
0.00711673 1.30055e-05 0
0.00710718 1.29793e-05 0
0.00710718 1.29793e-05 0
0.00709742 1.29504e-05 -1.73801e-22
0.00709742 1.29504e-05 -1.73801e-22
0.00708746 1.29198e-05 -1.74643e-22
0.00708746 1.29198e-05 -1.74643e-22
0.00707732 1.28886e-05 0
0.00707732 1.28886e-05 0
0.00706698 1.28576e-05 1.67934e-22
0.00706698 1.28576e-05 1.67934e-22
0.00705647 1.28265e-05 2.76024e-24
0.00705647 1.28265e-05 2.76024e-24
0.00704577 1.27947e-05 -1.66823e-22
0.00704577 1.27947e-05 -1.66823e-22
0.0070349 1.27617e-05 -1.62169e-22
0.0070349 1.27617e-05 -1.62169e-22
0.00702385 1.27272e-05 -1.62981e-22
0.00702385 1.27272e-05 -1.62981e-22
0.00701264 1.26908e-05 1.5838e-22
0.00701264 1.26908e-05 1.5838e-22
0.00700127 1.2653e-05 1.59183e-22
0.00700127 1.2653e-05 1.59183e-22
0.00698974 1.26148e-05 0
0.00698974 1.26148e-05 0
0.00697807 1.25775e-05 0
0.00697807 1.25775e-05 0
0.00696625 1.25413e-05 0
0.00696625 1.25413e-05 0
0.00695428 1.25054e-05 0
0.00695428 1.25054e-05 0
0.00694215 1.24683e-05 -2.94538e-22
0.00694215 1.24683e-05 -2.94538e-22
0.00692987 1.24287e-05 -5.86982e-22
0.00692987 1.24287e-05 -5.86982e-22
0.00691745 1.23872e-05 -2.92433e-22
0.00691745 1.23872e-05 -2.92433e-22
0.0069049 1.23451e-05 0
0.0069049 1.23451e-05 0
0.00689221 1.23041e-05 0
0.00689221 1.23041e-05 0
0.00687939 1.22647e-05 2.76568e-22
0.00687939 1.22647e-05 2.76568e-22
0.00686643 1.22257e-05 2.7805e-22
0.00686643 1.22257e-05 2.7805e-22
0.00685333 1.21854e-05 0
0.00685333 1.21854e-05 0
0.00684008 1.21427e-05 0
0.00684008 1.21427e-05 0
0.0068267 1.20979e-05 2.62529e-22
0.0068267 1.20979e-05 2.62529e-22
0.00681319 1.20527e-05 4.89852e-24
0.00681319 1.20527e-05 4.89852e-24
0.00679956 1.20082e-05 -2.60485e-22
0.00679956 1.20082e-05 -2.60485e-22
0.00678579 1.19646e-05 0
0.00678579 1.19646e-05 0
0.00677189 1.19208e-05 -2.48771e-22
0.00677189 1.19208e-05 -2.48771e-22
0.00675786 1.18761e-05 -4.95527e-22
0.00675786 1.18761e-05 -4.95527e-22
0.00674369 1.18297e-05 -2.46743e-22
0.00674369 1.18297e-05 -2.46743e-22
0.00672938 1.17818e-05 0
0.00672938 1.17818e-05 0
0.00671495 1.17331e-05 2.35276e-22
0.00671495 1.17331e-05 2.35276e-22
0.00670039 1.16848e-05 4.66509e-24
0.00670039 1.16848e-05 4.66509e-24
0.00668569 1.16372e-05 -2.33259e-22
0.00668569 1.16372e-05 -2.33259e-22
0.00667087 1.15897e-05 0
0.00667087 1.15897e-05 0
0.0066559 1.15416e-05 -2.22028e-22
0.0066559 1.15416e-05 -2.22028e-22
0.0066408 1.14926e-05 -2.23305e-22
0.0066408 1.14926e-05 -2.23305e-22
0.00662555 1.14426e-05 0
0.00662555 1.14426e-05 0
0.00661015 1.13916e-05 -2.12243e-22
0.00661015 1.13916e-05 -2.12243e-22
0.00659461 1.13402e-05 -2.13478e-22
0.00659461 1.13402e-05 -2.13478e-22
0.00657892 1.12893e-05 -2.05788e-22
0.00657892 1.12893e-05 -2.05788e-22
0.00656308 1.12395e-05 -2.06995e-22
0.00656308 1.12395e-05 -2.06995e-22
0.00654707 1.11913e-05 0
0.00654707 1.11913e-05 0
0.00653088 1.11446e-05 0
0.00653088 1.11446e-05 0
0.0065145 1.10988e-05 1.93032e-22
0.0065145 1.10988e-05 1.93032e-22
0.0064979 1.10541e-05 1.9418e-22
0.0064979 1.10541e-05 1.9418e-22
0.00648106 1.10112e-05 0
0.00648106 1.10112e-05 0
0.00646396 1.0971e-05 0
0.00646396 1.0971e-05 0
0.00644656 1.09357e-05 0
0.00644656 1.09357e-05 0
0.00642881 1.09073e-05 0
0.00642881 1.09073e-05 0
0.00641063 1.08879e-05 0
0.00641063 1.08879e-05 0
0.00639195 1.08801e-05 1.71163e-22
0.00639195 1.08801e-05 1.71163e-22
0.00637264 1.08878e-05 3.4029e-22
0.00637264 1.08878e-05 3.4029e-22
0.00635254 1.09164e-05 1.69112e-22
0.00635254 1.09164e-05 1.69112e-22
0.00633145 1.09778e-05 0