/*--------------------------------*- C++ -*----------------------------------*\
| =========                 |                                                 |
| \\      /  F ield         | OpenFOAM: The Open Source CFD Toolbox           |
|  \\    /   O peration     | Version:  2.1.x                                 |
|   \\  /    A nd           | Web:      www.OpenFOAM.org                      |
|    \\/     M anipulation  |                                                 |
\*---------------------------------------------------------------------------*/
FoamFile
{
    version     2.0;
    format      ascii;
    class       surfaceScalarField;
    location    "0.2";
    object      phi;
}
// * * * * * * * * * * * * * * * * * * * * * * * * * * * * * * * * * * * * * //

dimensions      [0 3 -1 0 0 0 0];

internalField   nonuniform List<scalar> 
760
(
0.000498519
0.00049898
0.000232819
0.0002632
0.000122211
0.000108108
6.20099e-05
5.77016e-05
2.90273e-05
3.04826e-05
1.25442e-05
1.39831e-05
4.69255e-06
5.35158e-06
9.05093e-07
1.28745e-06
-9.90714e-07
-6.0418e-07
-1.94163e-06
-1.54905e-06
-2.36381e-06
-2.07778e-06
-2.42945e-06
-2.43433e-06
-2.21661e-06
-2.71282e-06
-1.76963e-06
-2.94696e-06
-1.1325e-06
-3.13712e-06
-3.70881e-07
-3.26162e-06
4.07068e-07
-3.27795e-06
1.01706e-06
-3.10997e-06
1.11805e-06
-2.60095e-06
-1.38191e-06
0.000262533
0.000233948
0.000260677
0.000262556
0.00019077
0.000175514
0.000130044
0.000115928
8.34149e-05
7.46118e-05
5.13065e-05
4.35915e-05
3.05258e-05
2.36323e-05
1.73467e-05
1.19666e-05
9.0375e-06
5.20501e-06
3.83749e-06
1.15098e-06
6.85508e-07
-1.42578e-06
-1.05087e-06
-3.19792e-06
-1.75125e-06
-4.51242e-06
-1.67149e-06
-5.5267e-06
-1.02604e-06
-6.28255e-06
-4.37102e-08
-6.74393e-06
9.89665e-07
-6.81134e-06
1.69426e-06
-6.31463e-06
1.56681e-06
-4.97358e-06
-2.31507e-06
0.00010758
0.000123868
0.000173584
0.000194052
0.00017142
0.000175179
0.000144159
0.000140688
0.000111858
0.000104413
8.16045e-05
7.13455e-05
5.67954e-05
4.59414e-05
3.80568e-05
2.82053e-05
2.45654e-05
1.61964e-05
1.5149e-05
8.06739e-06
8.77703e-06
2.44624e-06
4.67221e-06
-1.59307e-06
2.27303e-06
-4.61323e-06
1.15518e-06
-6.90884e-06
9.58194e-07
-8.58555e-06
1.32812e-06
-9.61382e-06
1.87709e-06
-9.86025e-06
2.16226e-06
-9.09976e-06
1.69561e-06
-7.00697e-06
-3.11945e-06
5.74067e-05
6.39614e-05
0.0001144
0.000134558
0.000137223
0.000149856
0.00013481
0.000140601
0.000118868
0.000117854
9.71102e-05
9.06037e-05
7.5036e-05
6.55156e-05
5.56446e-05
4.50968e-05
3.9938e-05
2.94031e-05
2.78575e-05
1.76479e-05
1.89298e-05
8.87397e-06
1.25939e-05
2.24281e-06
8.32805e-06
-2.84737e-06
5.67181e-06
-6.75259e-06
4.20535e-06
-9.61911e-06
3.51928e-06
-1.14278e-05
3.19165e-06
-1.20326e-05
2.78229e-06
-1.11903e-05
1.85235e-06
-8.57704e-06
-3.7671e-06
3.03622e-05
3.10992e-05
7.36281e-05
8.87926e-05
0.000101703
0.000119281
0.000112776
0.000127028
0.000110183
0.000117947
9.8621e-05
9.96653e-05
8.28803e-05
7.87563e-05
6.6499e-05
5.89781e-05
5.15026e-05
4.18995e-05
3.87917e-05
2.78588e-05
2.85814e-05
1.65843e-05
2.07266e-05
7.59759e-06
1.49242e-05
4.55073e-07
1.08139e-05
-5.14222e-06
8.016e-06
-9.32122e-06
6.14e-06
-1.20518e-05
4.78599e-06
-1.31786e-05
3.55396e-06
-1.24583e-05
2.06725e-06
-9.59032e-06
-4.19986e-06
1.39565e-05
1.46427e-05
4.30238e-05
5.72254e-05
6.94292e-05
9.03754e-05
8.65693e-05
0.000107388
9.29713e-05
0.000109045
9.02864e-05
9.98501e-05
8.16256e-05
8.49171e-05
7.00112e-05
6.80925e-05
5.76951e-05
5.17157e-05
4.60926e-05
3.69613e-05
3.59429e-05
2.4234e-05
2.75172e-05
1.35233e-05
2.08002e-05
4.67204e-06
1.5616e-05
-2.45796e-06
1.17012e-05
-7.9064e-06
8.74452e-06
-1.15951e-05
6.41124e-06
-1.33453e-05
4.3668e-06
-1.29138e-05
2.30775e-06
-1.00313e-05
-4.39211e-06
5.34825e-06
6.79443e-06
2.32846e-05
3.6789e-05
4.46141e-05
6.65459e-05
6.24673e-05
8.70351e-05
7.33407e-05
9.56719e-05
7.67417e-05
9.39491e-05
7.40707e-05
8.50881e-05
6.73736e-05
7.22896e-05
5.85746e-05
5.80146e-05
4.91602e-05
4.38758e-05
4.01193e-05
3.07749e-05
3.20113e-05
1.91313e-05
2.50764e-05
9.10691e-06
1.93396e-05
7.78873e-07
1.46885e-05
-5.75534e-06
1.09266e-05
-1.03332e-05
7.81077e-06
-1.27295e-05
5.0866e-06
-1.26897e-05
2.5287e-06
-9.97337e-06
-4.36342e-06
1.2654e-06
3.02903e-06
1.16848e-05
2.38695e-05
2.72119e-05
4.85187e-05
4.27832e-05
6.89638e-05
5.47206e-05
8.12345e-05
6.14153e-05
8.47543e-05
6.29655e-05
8.1038e-05
6.04128e-05
7.23422e-05
5.51024e-05
6.08251e-05
4.82941e-05
4.8184e-05
4.0982e-05
3.55871e-05
3.38504e-05
2.37629e-05
2.73072e-05
1.31501e-05
2.15438e-05
4.04224e-06
1.6595e-05
-3.30652e-06
1.23873e-05
-8.62552e-06
8.77884e-06
-1.1621e-05
5.59755e-06
-1.20084e-05
2.68972e-06
-9.56555e-06
-4.1737e-06
-6.679e-07
1.19692e-06
4.87546e-06
1.58262e-05
1.52953e-05
3.55989e-05
2.75008e-05
5.42583e-05
3.84958e-05
6.77394e-05
4.63586e-05
7.43915e-05
5.04098e-05
7.44868e-05
5.08936e-05
6.93584e-05
4.85524e-05
6.06663e-05
4.42849e-05
4.99515e-05
3.89287e-05
3.84432e-05
3.31554e-05
2.70362e-05
2.74431e-05
1.63625e-05
2.20917e-05
6.89362e-06
1.72546e-05
-9.69435e-07
1.29705e-05
-6.84142e-06
9.19314e-06
-1.03437e-05
5.82448e-06
-1.11397e-05
2.76338e-06
-9.00446e-06
-3.91033e-06
-1.67284e-06
3.69747e-07
6.73928e-07
1.09794e-05
7.04078e-06
2.6732e-05
1.5833e-05
4.29661e-05
2.49418e-05
5.61306e-05
3.26031e-05
6.42302e-05
3.7798e-05
6.67918e-05
4.02416e-05
6.44149e-05
4.01716e-05
5.82363e-05
3.81067e-05
4.95163e-05
3.46524e-05
3.93976e-05
3.0376e-05
2.88126e-05
2.57457e-05
1.84928e-05
2.11115e-05
9.02775e-06
1.67086e-05
9.33489e-07
1.26671e-05
-5.29996e-06
9.024e-06
-9.20057e-06
5.73976e-06
-1.03555e-05
2.7374e-06
-8.5021e-06
-3.67293e-06
-2.29955e-06
1.69284e-07
-2.15728e-06
8.33708e-06
1.09566e-06
2.09791e-05
6.85819e-06
3.47036e-05
1.38112e-05
4.66776e-05
2.05389e-05
5.50025e-05
2.5965e-05
5.88658e-05
2.95085e-05
5.83714e-05
3.10388e-05
5.4206e-05
3.07414e-05
4.73136e-05
2.89751e-05
3.86639e-05
2.61578e-05
2.91298e-05
2.26946e-05
1.9456e-05
1.89386e-05
1.02838e-05
1.51729e-05
2.1991e-06
1.15996e-05
-4.22661e-06
8.32664e-06
-8.42766e-06
5.35915e-06
-9.88801e-06
2.61268e-06
-8.25564e-06
-3.56025e-06
-2.801e-06
4.70279e-07
-4.30327e-06
7.33934e-06
-3.45107e-06
1.76269e-05
-2.05711e-07
2.89582e-05
4.70999e-06
3.92619e-05
1.02432e-05
4.69693e-05
1.53976e-05
5.12113e-05
1.94589e-05
5.18101e-05
2.20544e-05
4.91105e-05
2.31083e-05
4.37597e-05
2.27548e-05
3.65174e-05
2.12511e-05
2.81335e-05
1.89103e-05
1.92967e-05
1.60575e-05
1.06367e-05
1.29993e-05
2.75728e-06
9.99626e-06
-3.72361e-06
7.22494e-06
-8.15634e-06
4.7311e-06
-9.89419e-06
2.39827e-06
-8.42281e-06
-3.66198e-06
-3.2877e-06
1.25797e-06
-6.12366e-06
7.6753e-06
-7.1362e-06
1.61394e-05
-5.87536e-06
2.51974e-05
-2.66212e-06
3.35486e-05
1.73687e-06
4.00703e-05
6.44299e-06
4.40052e-05
1.0702e-05
4.50511e-05
1.39968e-05
4.33158e-05
1.60623e-05
3.91942e-05
1.68471e-05
3.32326e-05
1.64563e-05
2.60243e-05
1.51005e-05
1.81524e-05
1.30577e-05
1.01795e-05
1.06425e-05
2.67253e-06
8.16981e-06
-3.75096e-06
5.89568e-06
-8.38221e-06
3.92452e-06
-1.0423e-05
2.10416e-06
-9.10245e-06
-4.05783e-06
-3.81459e-06
2.57255e-06
-7.77781e-06
9.13852e-06
-1.01889e-05
1.60505e-05
-1.03534e-05
2.28618e-05
-8.37395e-06
2.90692e-05
-4.8383e-06
3.40346e-05
-5.24812e-07
3.71917e-05
3.81753e-06
3.82087e-05
7.59614e-06
3.70372e-05
1.04204e-05
3.38699e-05
1.20957e-05
2.90573e-05
1.25943e-05
2.30257e-05
1.20239e-05
1.62229e-05
1.06028e-05
9.1005e-06
8.64088e-06
2.13448e-06
6.50783e-06
-4.11792e-06
4.56384e-06
-8.93824e-06
3.02152e-06
-1.13807e-05
1.73346e-06
-1.03144e-05
-4.82437e-06
-4.41001e-06
4.48256e-06
-9.27569e-06
1.15042e-05
-1.25593e-05
1.68342e-05
-1.35059e-05
2.13085e-05
-1.2182e-05
2.52452e-05
-9.10736e-06
2.846e-05
-4.99253e-06
3.05769e-05
-5.55515e-07
3.12717e-05
3.58845e-06
3.03932e-05
6.97875e-06
2.79796e-05
9.32092e-06
2.42151e-05
1.04779e-05
1.93687e-05
1.04576e-05
1.37432e-05
9.40651e-06
7.65153e-06
7.61046e-06
1.43052e-06
5.48552e-06
-4.49298e-06
3.52298e-06
-9.47571e-06
2.12816e-06
-1.24859e-05
1.27787e-06
-1.19641e-05
-6.0465e-06
-5.07402e-06
7.05658e-06
-1.04498e-05
1.438e-05
-1.38683e-05
1.77526e-05
-1.47998e-05
1.97401e-05
-1.34645e-05
2.14098e-05
-1.03981e-05
2.28936e-05
-6.25331e-06
2.39321e-05
-1.68404e-06
2.42024e-05
2.72476e-06
2.34844e-05
6.49679e-06
2.17076e-05
9.28198e-06
1.89299e-05
1.08611e-05
1.52895e-05
1.11483e-05
1.09561e-05
1.02014e-05
6.09838e-06
8.2464e-06
8.85519e-07
5.70713e-06
-4.45371e-06
3.20393e-06
-9.47252e-06
1.43386e-06
-1.32158e-05
7.33484e-07
-1.37637e-05
-7.81302e-06
-5.7103e-06
1.02669e-05
-1.07829e-05
1.69526e-05
-1.32232e-05
1.76929e-05
-1.31719e-05
1.71888e-05
-1.11535e-05
1.68914e-05
-7.72101e-06
1.69611e-05
-3.41944e-06
1.71305e-05
1.22417e-06
1.70588e-05
5.71783e-06
1.64908e-05
9.62681e-06
1.52986e-05
1.25931e-05
1.34636e-05
1.43487e-05
1.1034e-05
1.47265e-05
8.07822e-06
1.36787e-05
4.64615e-06
1.13158e-05
7.48449e-07
7.97783e-06
-3.61574e-06
4.32534e-06
-8.32003e-06
1.38077e-06
-1.27713e-05
1.82038e-07
-1.5065e-05
-1.0131e-05
-5.87661e-06
1.36435e-05
-8.91258e-06
1.74886e-05
-8.79666e-06
1.50769e-05
-6.80707e-06
1.26992e-05
-3.68372e-06
1.12681e-05
1.78045e-07
1.05994e-05
4.47534e-06
1.03332e-05
8.89823e-06
1.01359e-05
1.31129e-05
9.77613e-06
1.67808e-05
9.13066e-06
1.95861e-05
8.15841e-06
2.12554e-05
6.86457e-06
2.15706e-05
5.26304e-06
2.03784e-05
3.33835e-06
1.76187e-05
1.00819e-06
1.34028e-05
-1.89984e-06
8.17758e-06
-5.59483e-06
3.05988e-06
-1.01536e-05
5.14096e-08
-1.45565e-05
-1.25796e-05
-3.55245e-06
1.46959e-05
-1.16327e-06
1.25995e-05
2.99095e-06
8.42277e-06
7.08745e-06
6.10275e-06
1.09095e-05
4.94601e-06
1.45902e-05
4.41866e-06
1.82191e-05
4.20438e-06
2.17584e-05
4.09661e-06
2.50621e-05
3.97249e-06
2.79216e-05
3.77114e-06
3.01088e-05
3.47119e-06
3.14023e-05
3.0711e-06
3.15943e-05
2.571e-06
3.04804e-05
1.95229e-06
2.78388e-05
1.14973e-06
2.34506e-05
-1.16029e-08
1.71517e-05
-1.79593e-06
9.32351e-06
-4.82538e-06
2.07166e-06
-9.8047e-06
-1.30079e-05
1.21959e-05
2.22954e-05
2.82181e-05
3.18209e-05
3.42669e-05
3.61856e-05
3.789e-05
3.94866e-05
4.09591e-05
4.22302e-05
4.32014e-05
4.37725e-05
4.38435e-05
4.32958e-05
4.19455e-05
3.94339e-05
3.5138e-05
2.78126e-05
1.55079e-05
)
;

boundaryField
{
    movingWall
    {
        type            calculated;
        value           uniform 0;
    }
    fixedWalls
    {
        type            calculated;
        value           uniform 0;
    }
    frontAndBack
    {
        type            empty;
        value           nonuniform 0();
    }
}


// ************************************************************************* //
