/*--------------------------------*- C++ -*----------------------------------*\
| =========                 |                                                 |
| \\      /  F ield         | OpenFOAM: The Open Source CFD Toolbox           |
|  \\    /   O peration     | Version:  2.1.x                                 |
|   \\  /    A nd           | Web:      www.OpenFOAM.org                      |
|    \\/     M anipulation  |                                                 |
\*---------------------------------------------------------------------------*/
FoamFile
{
    version     2.0;
    format      ascii;
    class       volVectorField;
    location    "0.2";
    object      U;
}
// * * * * * * * * * * * * * * * * * * * * * * * * * * * * * * * * * * * * * //

dimensions      [0 1 -1 0 0 0 0];

internalField   nonuniform List<vector> 
400
(
(1.83397 1.83418 0)
(8.92988 1.77788 0)
(5.00205 0.905464 0)
(1.57777 0.480091 0)
(0.673866 0.245621 0)
(0.366388 0.0969449 0)
(0.156168 0.0209149 0)
(0.0432717 -0.0110678 0)
(-0.00844238 -0.0227269 0)
(-0.033479 -0.0266232 0)
(-0.0456575 -0.0280991 0)
(-0.0497835 -0.0289887 0)
(-0.0478743 -0.0298758 0)
(-0.0409515 -0.030874 0)
(-0.0297796 -0.031875 0)
(-0.0153638 -0.0326238 0)
(0.000727081 -0.0326896 0)
(0.0158726 -0.0312643 0)
(0.0240693 -0.0265262 0)
(0.0126694 -0.0141884 0)
(1.77466 8.94225 0)
(6.46568 6.48241 0)
(5.14816 3.56222 0)
(3.01201 1.98849 0)
(1.93771 1.10315 0)
(1.28551 0.55581 0)
(0.784093 0.249914 0)
(0.449633 0.0937881 0)
(0.244155 0.0151218 0)
(0.116302 -0.026594 0)
(0.0368147 -0.0510395 0)
(-0.00971632 -0.0672935 0)
(-0.0325318 -0.0794755 0)
(-0.0375615 -0.0892225 0)
(-0.0292199 -0.0967825 0)
(-0.0117325 -0.10149 0)
(0.0100175 -0.10187 0)
(0.0297511 -0.0953332 0)
(0.0375088 -0.0770902 0)
(0.0183977 -0.0378237 0)
(0.90025 5.03377 0)
(3.54571 5.19974 0)
(3.70521 3.75826 0)
(3.10491 2.71107 0)
(2.51635 1.86692 0)
(1.91904 1.17849 0)
(1.35924 0.694781 0)
(0.919483 0.386535 0)
(0.602636 0.194962 0)
(0.379768 0.0741944 0)
(0.226364 -0.00497553 0)
(0.124801 -0.0600124 0)
(0.0621503 -0.100609 0)
(0.0288912 -0.131471 0)
(0.0174708 -0.154087 0)
(0.0209604 -0.167749 0)
(0.0321645 -0.170028 0)
(0.04305 -0.156808 0)
(0.0432077 -0.12178 0)
(0.0195381 -0.0552493 0)
(0.476195 1.61657 0)
(1.97638 3.09423 0)
(2.66646 3.20089 0)
(2.77541 2.86637 0)
(2.57231 2.29262 0)
(2.176 1.67012 0)
(1.71453 1.14142 0)
(1.28875 0.741761 0)
(0.936567 0.453762 0)
(0.66087 0.24953 0)
(0.453618 0.103698 0)
(0.303746 -0.00304141 0)
(0.200193 -0.0833789 0)
(0.133152 -0.144378 0)
(0.0939509 -0.188801 0)
(0.0744246 -0.216222 0)
(0.0663945 -0.223795 0)
(0.0614045 -0.206718 0)
(0.0497644 -0.158361 0)
(0.0204718 -0.0697796 0)
(0.243774 0.713833 0)
(1.09636 2.03814 0)
(1.83541 2.64916 0)
(2.21836 2.71206 0)
(2.28502 2.41197 0)
(2.11951 1.95099 0)
(1.82456 1.47811 0)
(1.48963 1.06236 0)
(1.16946 0.723256 0)
(0.8903 0.457409 0)
(0.661313 0.252165 0)
(0.482011 0.0934702 0)
(0.347219 -0.0299696 0)
(0.249988 -0.125298 0)
(0.182825 -0.1956 0)
(0.138015 -0.240549 0)
(0.107678 -0.257172 0)
(0.0838732 -0.24057 0)
(0.0581832 -0.184427 0)
(0.0218796 -0.0806864 0)
(0.0964037 0.408123 0)
(0.55257 1.39959 0)
(1.15846 2.08307 0)
(1.6151 2.3622 0)
(1.84654 2.30209 0)
(1.86926 2.03118 0)
(1.73958 1.66942 0)
(1.52366 1.2959 0)
(1.27558 0.952897 0)
(1.03148 0.657565 0)
(0.811832 0.411968 0)
(0.625738 0.211176 0)
(0.474988 0.0488298 0)
(0.357186 -0.0798267 0)
(0.267676 -0.176764 0)
(0.200568 -0.241094 0)
(0.149322 -0.269577 0)
(0.107182 -0.257383 0)
(0.0673507 -0.198788 0)
(0.0235798 -0.0869158 0)
(0.0208476 0.19844 0)
(0.247983 0.907061 0)
(0.681734 1.54668 0)
(1.10207 1.9399 0)
(1.39703 2.05888 0)
(1.5353 1.95968 0)
(1.53279 1.72486 0)
(1.42864 1.42662 0)
(1.26507 1.11545 0)
(1.07694 0.82117 0)
(0.888802 0.557977 0)
(0.715593 0.33046 0)
(0.564722 0.138758 0)
(0.438373 -0.0178409 0)
(0.335348 -0.138917 0)
(0.252346 -0.222212 0)
(0.18481 -0.263797 0)
(0.127596 -0.258769 0)
(0.0756697 -0.20205 0)
(0.025215 -0.0883603 0)
(-0.0111583 0.0855395 0)
(0.091677 0.577901 0)
(0.376294 1.12296 0)
(0.712372 1.54417 0)
(1.00026 1.76749 0)
(1.189 1.79665 0)
(1.26738 1.6771 0)
(1.25055 1.4639 0)
(1.165 1.20465 0)
(1.03812 0.933878 0)
(0.892849 0.673381 0)
(0.745879 0.435346 0)
(0.607828 0.22614 0)
(0.48435 0.0496016 0)
(0.377424 -0.0907512 0)
(0.286452 -0.190649 0)
(0.209093 -0.244991 0)
(0.141966 -0.248477 0)
(0.0816956 -0.196549 0)
(0.0264472 -0.0858543 0)
(-0.0230888 0.0344936 0)
(0.011839 0.37711 0)
(0.184162 0.81811 0)
(0.428374 1.21452 0)
(0.673293 1.48159 0)
(0.86784 1.59274 0)
(0.98716 1.56342 0)
(1.02921 1.4289 0)
(1.00598 1.22778 0)
(0.935314 0.993278 0)
(0.835286 0.75021 0)
(0.72122 0.515493 0)
(0.604561 0.300299 0)
(0.492922 0.112545 0)
(0.390653 -0.0410887 0)
(0.299522 -0.15402 0)
(0.219298 -0.219575 0)
(0.148296 -0.231647 0)
(0.0844439 -0.185889 0)
(0.0270357 -0.0809299 0)
(-0.0275211 0.0112114 0)
(-0.0321058 0.255115 0)
(0.0598776 0.605914 0)
(0.222636 0.956136 0)
(0.412288 1.22811 0)
(0.586992 1.38264 0)
(0.718293 1.41546 0)
(0.79411 1.34477 0)
(0.815394 1.19831 0)
(0.790905 1.00444 0)
(0.732659 0.787405 0)
(0.652781 0.566034 0)
(0.561754 0.354408 0)
(0.467745 0.163459 0)
(0.376538 0.00256019 0)
(0.291728 -0.119442 0)
(0.21492 -0.194054 0)
(0.145927 -0.2139 0)
(0.0834822 -0.174303 0)
(0.0268549 -0.0755157 0)
(-0.0298511 0.00234076 0)
(-0.0600875 0.183955 0)
(-0.0257432 0.463828 0)
(0.0704136 0.763034 0)
(0.205364 1.01744 0)
(0.348749 1.18658 0)
(0.474212 1.25593 0)
(0.565188 1.23138 0)
(0.615291 1.13066 0)
(0.625912 0.975816 0)
(0.60316 0.788232 0)
(0.555229 0.586348 0)
(0.49057 0.385299 0)
(0.416852 0.197716 0)
(0.340473 0.0348567 0)
(0.266334 -0.0925181 0)
(0.197606 -0.174007 0)
(0.135438 -0.200453 0)
(0.0788718 -0.166007 0)
(0.025873 -0.0716423 0)
(-0.0320563 0.00390702 0)
(-0.0815486 0.149623 0)
(-0.0902798 0.375776 0)
(-0.0469092 0.625602 0)
(0.0399737 0.850058 0)
(0.150045 1.0137 0)
(0.261158 1.09865 0)
(0.355691 1.10323 0)
(0.422974 1.03721 0)
(0.459001 0.91634 0)
(0.464843 0.757977 0)
(0.444786 0.578582 0)
(0.404765 0.392772 0)
(0.351296 0.213542 0)
(0.290798 0.0530458 0)
(0.229085 -0.0766313 0)
(0.170772 -0.163264 0)
(0.118387 -0.195356 0)
(0.0710092 -0.164655 0)
(0.0240994 -0.0712225 0)
(-0.034939 0.0150117 0)
(-0.101039 0.144351 0)
(-0.143446 0.329817 0)
(-0.140956 0.533252 0)
(-0.0928061 0.72086 0)
(-0.0121269 0.865368 0)
(0.0830395 0.949918 0)
(0.175633 0.969094 0)
(0.252805 0.926963 0)
(0.306927 0.833704 0)
(0.335132 0.70234 0)
(0.338226 0.546405 0)
(0.319559 0.378811 0)
(0.284143 0.211715 0)
(0.238016 0.0570894 0)
(0.18767 -0.0724718 0)
(0.139244 -0.163231 0)
(0.0970406 -0.200822 0)
(0.0604214 -0.172908 0)
(0.0215038 -0.0759628 0)
(-0.0389555 0.0361244 0)
(-0.120665 0.163513 0)
(-0.18947 0.316436 0)
(-0.216643 0.475203 0)
(-0.19621 0.621548 0)
(-0.137266 0.737787 0)
(-0.0549267 0.810478 0)
(0.0347993 0.832961 0)
(0.118211 0.805509 0)
(0.18548 0.733763 0)
(0.230898 0.62658 0)
(0.252402 0.494163 0)
(0.250909 0.346924 0)
(0.229749 0.195179 0)
(0.194273 0.0496097 0)
(0.151454 -0.0777375 0)
(0.109156 -0.172305 0)
(0.0742796 -0.216579 0)
(0.0475913 -0.192079 0)
(0.0179138 -0.0874288 0)
(-0.0445174 0.0684748 0)
(-0.141019 0.203337 0)
(-0.228097 0.32632 0)
(-0.272268 0.439738 0)
(-0.266607 0.541559 0)
(-0.219277 0.623851 0)
(-0.143832 0.677342 0)
(-0.0551545 0.695406 0)
(0.0331303 0.675849 0)
(0.110181 0.620765 0)
(0.168482 0.53534 0)
(0.203784 0.426447 0)
(0.214829 0.3016 0)
(0.203149 0.168532 0)
(0.173031 0.0355751 0)
(0.131554 -0.0870948 0)
(0.0883507 -0.185393 0)
(0.0539823 -0.239115 0)
(0.0330054 -0.221641 0)
(0.0129389 -0.107233 0)
(-0.0519504 0.113752 0)
(-0.16089 0.25843 0)
(-0.253776 0.347559 0)
(-0.298385 0.412747 0)
(-0.292219 0.468285 0)
(-0.245119 0.51457 0)
(-0.169842 0.545743 0)
(-0.079784 0.555423 0)
(0.0124663 0.539757 0)
(0.0961957 0.498201 0)
(0.163113 0.432963 0)
(0.207519 0.347955 0)
(0.22633 0.2478 0)
(0.21917 0.137279 0)
(0.188706 0.0215243 0)
(0.141266 -0.0926314 0)
(0.0875882 -0.193656 0)
(0.0424872 -0.260654 0)
(0.0179844 -0.258284 0)
(0.00616369 -0.137375 0)
(-0.0604597 0.174434 0)
(-0.174602 0.318385 0)
(-0.251751 0.362007 0)
(-0.274499 0.376036 0)
(-0.251182 0.38741 0)
(-0.194029 0.400672 0)
(-0.114182 0.411201 0)
(-0.0223512 0.412427 0)
(0.0711923 0.399407 0)
(0.157089 0.369897 0)
(0.227342 0.324033 0)
(0.275642 0.263454 0)
(0.297575 0.190343 0)
(0.290854 0.106694 0)
(0.255838 0.0141387 0)
(0.19662 -0.0850372 0)
(0.122876 -0.184578 0)
(0.05212 -0.26753 0)
(0.00755588 -0.293852 0)
(-0.00157936 -0.180944 0)
(-0.0630694 0.25122 0)
(-0.16313 0.360368 0)
(-0.188329 0.341191 0)
(-0.162683 0.307426 0)
(-0.109145 0.285314 0)
(-0.0378509 0.275707 0)
(0.0451203 0.27249 0)
(0.133838 0.268724 0)
(0.221809 0.259259 0)
(0.302194 0.24131 0)
(0.36834 0.214034 0)
(0.41428 0.177742 0)
(0.43505 0.133028 0)
(0.426848 0.0799367 0)
(0.387343 0.0173374 0)
(0.316619 -0.0569965 0)
(0.21906 -0.144312 0)
(0.108232 -0.238969 0)
(0.0182485 -0.309555 0)
(-0.00284518 -0.238623 0)
(-0.0194299 0.306117 0)
(-0.0613437 0.331168 0)
(0.0110471 0.252418 0)
(0.100891 0.194231 0)
(0.180749 0.161662 0)
(0.255106 0.145947 0)
(0.328142 0.139199 0)
(0.400345 0.135424 0)
(0.469646 0.130752 0)
(0.532314 0.123146 0)
(0.583839 0.111836 0)
(0.619645 0.0967257 0)
(0.635431 0.0777962 0)
(0.627111 0.0544683 0)
(0.590529 0.0248318 0)
(0.521279 -0.0152925 0)
(0.413734 -0.0732243 0)
(0.264153 -0.157891 0)
(0.104356 -0.264319 0)
(0.0420418 -0.273516 0)
(0.286516 0.159821 0)
(0.359362 0.146126 0)
(0.502126 0.0952278 0)
(0.603941 0.0640727 0)
(0.663862 0.0483575 0)
(0.705771 0.0411226 0)
(0.741264 0.0381223 0)
(0.774187 0.0368079 0)
(0.805103 0.0357488 0)
(0.832914 0.0342518 0)
(0.85576 0.0320597 0)
(0.871609 0.0291209 0)
(0.878471 0.0253906 0)
(0.874241 0.0206098 0)
(0.856103 0.0139733 0)
(0.819102 0.00349427 0)
(0.752215 -0.0153078 0)
(0.631292 -0.0502467 0)
(0.452573 -0.108414 0)
(0.324305 -0.137683 0)
)
;

boundaryField
{
    movingWall
    {
        type            fixedValue;
        value           uniform (1 0 0);
    }
    fixedWalls
    {
        type            fixedValue;
        value           uniform (0 0 0);
    }
    frontAndBack
    {
        type            empty;
    }
}


// ************************************************************************* //
