/*--------------------------------*- C++ -*----------------------------------*\
| =========                 |                                                 |
| \\      /  F ield         | OpenFOAM: The Open Source CFD Toolbox           |
|  \\    /   O peration     | Version:  2.1.x                                 |
|   \\  /    A nd           | Web:      www.OpenFOAM.org                      |
|    \\/     M anipulation  |                                                 |
\*---------------------------------------------------------------------------*/
FoamFile
{
    version     2.0;
    format      ascii;
    class       volScalarField;
    location    "0.003";
    object      k;
}
// * * * * * * * * * * * * * * * * * * * * * * * * * * * * * * * * * * * * * //

dimensions      [0 2 -2 0 0 0 0];

internalField   nonuniform List<scalar> 
12225
(
9.21947
9.22351
7.01916
5.10348
3.86623
3.55576
3.15077
2.8604
2.65751
2.70809
2.80137
2.69166
2.6592
2.59124
3.08431
3.26332
3.82031
3.67772
2.45268
5.1563
5.44072
5.178
4.45405
4.18458
3.82893
3.35079
3.05663
2.95993
2.81477
2.71183
2.621
2.44714
2.39349
2.43743
2.52729
2.56424
0.195753
1.28952
1.89218
2.49315
2.51988
2.45673
2.45394
2.42427
2.25724
1.92043
1.7836
1.81282
1.80993
1.70977
1.34584
1.20044
1.19282
1.22172
0.0100314
0.162625
0.35448
0.625587
0.793452
0.780873
0.795535
0.933321
0.963686
0.851828
0.734026
0.748664
0.778128
0.754013
0.612846
0.434622
0.389194
0.401758
0.000428789
0.0118712
0.0334251
0.093863
0.15845
0.145211
0.147767
0.224557
0.26814
0.236636
0.194006
0.19847
0.224785
0.219635
0.17325
0.106065
0.09643
0.104429
3.98331e-05
0.000642874
0.00219311
0.0101487
0.019192
0.0163032
0.0171585
0.0379677
0.048944
0.0435984
0.0356299
0.0373944
0.0418927
0.039684
0.0291873
0.0189639
0.0178358
0.0195723
2.36816e-05
5.65538e-05
0.00014697
0.000767696
0.00156432
0.00127187
0.00136378
0.00391014
0.00534936
0.00491984
0.00368934
0.00349254
0.00346377
0.00332762
0.00290799
0.00199732
0.00187889
0.00192089
2.73325e-05
3.51894e-05
5.02585e-05
0.000131646
0.000204392
0.000169979
0.000163763
0.000353299
0.00046382
0.000434015
0.000329178
0.000296393
0.000301234
0.000294367
0.000246775
0.000201902
0.000206781
0.000219344
2.33289e-05
4.31716e-05
4.79091e-05
6.03985e-05
0.000141574
0.00017255
0.000148627
0.000140291
0.000148151
0.0001419
0.000104721
9.33134e-05
9.13639e-05
9.24442e-05
9.73898e-05
0.000108288
0.000113105
0.000140694
3.7861e-05
3.6238e-05
3.3838e-05
4.23358e-05
6.5314e-05
6.5942e-05
6.30303e-05
6.85073e-05
8.29929e-05
7.99087e-05
7.61147e-05
8.071e-05
0.000112207
0.000130962
0.000129124
0.000127442
0.000138409
0.000188179
2.20541e-05
2.34291e-05
2.54659e-05
2.69525e-05
3.28861e-05
4.12639e-05
4.29495e-05
4.71583e-05
5.80365e-05
8.53894e-05
9.50836e-05
0.000103593
0.000108866
0.000128645
0.000169613
0.000185891
0.000185121
0.000151231
2.17956e-05
2.56829e-05
2.52312e-05
2.52057e-05
2.8376e-05
3.51927e-05
3.83496e-05
4.11211e-05
4.13918e-05
4.10631e-05
4.15694e-05
4.68053e-05
7.86199e-05
8.84608e-05
8.18355e-05
7.01865e-05
6.91412e-05
7.84596e-05
2.28299e-05
2.25964e-05
2.25154e-05
2.36071e-05
2.87447e-05
3.14723e-05
3.11934e-05
2.99951e-05
3.0075e-05
3.09332e-05
3.23168e-05
3.59718e-05
3.63722e-05
3.72593e-05
4.38589e-05
4.94981e-05
5.63201e-05
7.73413e-05
2.19076e-05
2.2805e-05
2.30956e-05
2.40663e-05
2.85043e-05
4.29226e-05
5.36012e-05
5.62558e-05
5.4767e-05
4.58991e-05
3.95002e-05
3.88512e-05
4.12904e-05
4.34297e-05
4.40716e-05
4.87198e-05
5.59306e-05
6.55949e-05
2.04629e-05
2.26533e-05
2.5668e-05
2.62333e-05
2.66246e-05
2.85704e-05
3.70528e-05
5.64965e-05
6.82058e-05
7.42976e-05
7.4933e-05
7.18269e-05
6.52812e-05
6.57096e-05
6.50768e-05
5.53049e-05
5.32653e-05
0.000122197
2.26058e-05
2.48022e-05
2.46968e-05
2.4559e-05
2.48257e-05
2.58839e-05
2.80459e-05
3.29049e-05
4.20542e-05
4.74809e-05
5.19548e-05
6.07995e-05
6.63781e-05
6.61095e-05
6.52885e-05
6.60507e-05
6.1444e-05
6.31877e-05
2.06975e-05
2.35636e-05
2.55184e-05
2.60017e-05
2.59192e-05
2.61664e-05
2.69435e-05
2.72837e-05
2.77165e-05
2.80651e-05
2.90263e-05
3.57581e-05
4.3573e-05
4.52779e-05
4.51499e-05
4.30631e-05
4.29457e-05
4.52704e-05
2.15825e-05
2.28394e-05
2.55557e-05
3.0124e-05
2.98286e-05
2.74476e-05
2.65289e-05
2.66936e-05
2.81568e-05
3.2335e-05
3.44732e-05
3.55323e-05
3.54262e-05
3.48486e-05
3.52265e-05
3.67193e-05
3.89862e-05
4.39286e-05
2.24884e-05
2.22743e-05
2.29311e-05
2.72807e-05
3.76117e-05
4.07927e-05
4.09599e-05
3.97579e-05
3.80767e-05
3.82591e-05
3.88925e-05
3.8867e-05
3.8039e-05
3.77487e-05
3.8082e-05
3.89335e-05
4.01895e-05
4.10206e-05
2.16033e-05
2.28521e-05
2.42505e-05
2.54885e-05
2.57717e-05
2.59691e-05
2.67667e-05
2.8327e-05
2.87979e-05
2.98781e-05
3.24289e-05
3.39681e-05
3.45265e-05
3.51511e-05
3.54968e-05
3.52797e-05
3.55566e-05
3.76797e-05
2.2769e-05
2.36658e-05
2.3512e-05
2.35384e-05
2.39117e-05
2.48083e-05
2.7226e-05
2.91962e-05
2.94787e-05
2.98253e-05
3.0484e-05
3.19995e-05
3.56645e-05
4.34938e-05
5.02839e-05
5.16901e-05
5.14112e-05
4.99849e-05
2.22375e-05
2.32117e-05
2.51788e-05
2.64242e-05
2.74575e-05
2.99237e-05
3.29921e-05
3.35914e-05
3.39712e-05
3.52653e-05
3.81134e-05
4.45108e-05
5.98453e-05
7.56129e-05
8.96827e-05
9.73302e-05
9.95487e-05
9.92221e-05
2.1201e-05
2.19065e-05
2.93285e-05
4.50946e-05
4.78482e-05
4.57821e-05
4.3636e-05
4.47139e-05
5.31198e-05
8.13978e-05
0.000107943
0.000121558
0.00012531
0.000127887
0.000133573
0.000145551
0.000167975
0.000177468
2.39118e-05
2.86803e-05
3.44914e-05
5.62225e-05
8.72794e-05
0.000111537
0.000156038
0.000256335
0.000522789
0.000857825
0.00104928
0.00111189
0.00113613
0.00117876
0.00131639
0.00148743
0.00159705
0.00159518
2.18463e-05
4.79632e-05
0.000179696
0.000674
0.00121416
0.00171987
0.00268086
0.00497789
0.00858478
0.0113268
0.0125533
0.0128171
0.0129296
0.0132158
0.0142993
0.0153716
0.0155477
0.0154105
2.99488e-05
0.000650499
0.0039962
0.0138662
0.0210614
0.0278615
0.0409993
0.0662194
0.088001
0.100572
0.104214
0.104088
0.103338
0.10373
0.104595
0.104167
0.102771
0.0998631
0.000571245
0.0166737
0.0755955
0.176846
0.229633
0.294019
0.373475
0.444448
0.48603
0.50017
0.499507
0.495651
0.488772
0.482841
0.470055
0.457945
0.433053
0.416478
0.0235957
0.290098
0.858866
1.19704
1.40946
1.60711
1.71961
1.72621
1.7085
1.65804
1.58377
1.528
1.46634
1.41719
1.33973
1.27932
1.18489
1.13558
0.616306
3.10203
4.32683
4.42222
4.29064
3.99731
3.69117
3.39159
3.11511
2.86093
2.64807
2.47342
2.32534
2.19429
2.07104
1.97177
1.86707
1.80747
6.76912
9.58113
8.48422
6.39965
4.98168
4.04502
3.41154
2.96445
2.63935
2.38233
2.18726
2.0266
1.90041
1.79051
1.70504
1.63481
1.57847
1.52398
8.93534e-05
7.17285e-05
7.40344e-05
9.46531e-05
0.000137945
0.000203364
0.000299985
0.000438188
0.000630001
0.000889456
0.00123254
0.00167729
0.00224387
0.00295511
0.00383655
0.00491628
0.00622608
0.00780127
0.00968066
0.0119065
0.0145253
0.0175871
0.0211459
0.0252572
0.0299794
0.035372
0.0414949
0.0484073
0.0561673
0.0648276
0.0744333
0.0850263
0.0966474
0.109324
0.123062
0.137866
0.153739
0.170672
0.188628
0.207562
0.227435
0.2482
0.269788
0.292115
0.315109
0.338703
0.362808
0.38733
0.412184
0.437297
0.462586
0.487963
0.513351
0.538687
0.563908
0.588945
0.61374
0.63825
0.662433
0.686246
0.709651
0.732626
0.755149
0.7772
0.79876
0.819821
0.840381
0.860433
0.879972
0.899001
0.917529
0.935559
0.953102
0.970038
0.986402
1.00224
1.01758
1.03246
1.0469
1.06093
1.07457
1.08783
1.10073
1.11329
1.12553
1.13745
1.14908
1.16041
1.17146
1.18226
1.19281
1.20312
1.2132
1.22306
1.23271
1.24217
1.25144
1.26052
1.26943
1.27818
1.28678
1.29522
1.30352
1.31168
1.31971
1.32762
1.33541
1.34309
1.35065
1.35811
1.36547
1.37273
1.3799
1.38698
1.39397
1.40088
1.40771
1.41446
1.42114
1.42775
1.43429
1.44075
1.44715
1.45348
1.45975
1.46596
1.4721
1.47819
1.48422
1.49019
1.4961
1.50195
1.50774
1.51348
1.51917
1.5248
1.53037
1.53589
1.54134
1.54674
1.55208
1.55736
1.56258
1.56775
1.57285
1.57789
1.58286
1.58778
1.59263
1.59741
1.60213
1.60678
1.61135
1.61585
1.62028
1.62462
1.62888
1.63305
1.63713
1.6411
1.64495
1.64866
1.65223
1.65563
1.65884
1.66182
1.66452
1.66689
1.66882
1.67028
1.67086
1.67132
1.66857
1.66916
1.65801
1.65816
1.63735
1.62378
1.60196
1.51439
0.000745221
0.000270531
9.11512e-05
6.17556e-05
5.92044e-05
6.08258e-05
6.40859e-05
6.83028e-05
7.37556e-05
8.07084e-05
8.94624e-05
0.000100412
0.000113961
0.000130562
0.000150725
0.000175003
0.000204024
0.000238443
0.00027899
0.000326501
0.000381922
0.000446271
0.000520751
0.000606731
0.000705808
0.000819703
0.000950356
0.00110005
0.00127133
0.00146686
0.00168966
0.00194297
0.00223028
0.00255527
0.0029216
0.00333287
0.00379334
0.00430719
0.00487834
0.00551057
0.00620741
0.0069726
0.00780964
0.00872134
0.00970996
0.0107776
0.0119263
0.0131573
0.0144712
0.0158681
0.0173475
0.018909
0.0205513
0.0222726
0.0240707
0.0259431
0.027887
0.0298996
0.0319772
0.0341163
0.0363132
0.0385641
0.0408655
0.0432133
0.0456035
0.0480326
0.0504971
0.0529934
0.055518
0.0580674
0.0606393
0.0632331
0.0658199
0.0685384
0.0713703
0.0743052
0.0773242
0.0804039
0.0835262
0.0866824
0.0898667
0.0930713
0.0962881
0.099513
0.102734
0.105947
0.109149
0.112338
0.115514
0.118677
0.121827
0.124963
0.128085
0.131194
0.13429
0.137375
0.14045
0.143514
0.146567
0.149612
0.152652
0.155687
0.158719
0.16175
0.164779
0.167809
0.17084
0.173875
0.176917
0.179966
0.183024
0.186092
0.189173
0.192269
0.195382
0.198514
0.201665
0.204837
0.208032
0.211252
0.214498
0.217772
0.221076
0.224409
0.227774
0.231171
0.234602
0.23807
0.241575
0.24512
0.248705
0.252331
0.255996
0.259704
0.263456
0.267256
0.271103
0.274999
0.278942
0.282934
0.286974
0.291067
0.295213
0.299414
0.30367
0.307981
0.312346
0.316768
0.321248
0.325789
0.33039
0.335053
0.339778
0.344566
0.349416
0.354329
0.359308
0.364353
0.369468
0.374653
0.379908
0.385235
0.390631
0.3961
0.401644
0.407259
0.412972
0.418704
0.424699
0.4303
0.437163
0.441682
0.45068
0.454007
0.465279
0.467304
0.484392
0.484355
0.503238
0.561149
0.00304546
0.000975063
0.000208459
7.99514e-05
6.1754e-05
6.06311e-05
6.22249e-05
6.48864e-05
6.79718e-05
7.15226e-05
7.55334e-05
8.00148e-05
8.49468e-05
9.02839e-05
9.5965e-05
0.000101901
0.000108005
0.000114129
0.000120129
0.000125873
0.00013121
0.000135962
0.000139996
0.000143261
0.000145695
0.000147226
0.000147807
0.000147591
0.000146703
0.000145101
0.000142447
0.000138822
0.000134864
0.000130748
0.000126699
0.000122764
0.000119376
0.000116624
0.000114239
0.000112971
0.000112735
0.00011347
0.000115367
0.000118508
0.000122961
0.00012877
0.000135988
0.000144688
0.000154916
0.000166719
0.000180132
0.000195206
0.000212
0.00023056
0.00025091
0.000273091
0.000297156
0.000323151
0.000351098
0.000381014
0.000412921
0.000446851
0.000482814
0.000520805
0.000560825
0.000602876
0.000646949
0.000693032
0.0007411
0.000791136
0.000843118
0.000897014
0.00095279
0.00101051
0.00107052
0.00113319
0.0011988
0.0012673
0.00133861
0.00141285
0.00148996
0.00156993
0.00165387
0.00173632
0.00183251
0.00194081
0.00206023
0.00218914
0.00232617
0.00246993
0.00261921
0.00277307
0.00293095
0.00309238
0.00325679
0.00342375
0.00359291
0.00376392
0.00393659
0.00411082
0.00428652
0.00446361
0.00464208
0.00482191
0.00500306
0.00518554
0.00536937
0.00555466
0.00574158
0.00593025
0.00612081
0.00631338
0.00650809
0.00670516
0.00690477
0.00710712
0.00731235
0.00752063
0.00773219
0.00794725
0.00816603
0.0083887
0.00861543
0.0088464
0.00908181
0.00932188
0.00956682
0.00981694
0.0100725
0.0103339
0.0106012
0.0108746
0.0111542
0.0114402
0.0117332
0.0120334
0.0123414
0.0126571
0.0129808
0.0133125
0.0136527
0.0140017
0.0143601
0.0147282
0.0151061
0.0154942
0.0158927
0.0163019
0.0167223
0.0171547
0.0175993
0.0180567
0.0185271
0.019011
0.0195088
0.020021
0.0205484
0.0210919
0.0216524
0.0222308
0.0228282
0.0234455
0.0240841
0.0247458
0.0254327
0.0261459
0.0268972
0.027663
0.0285312
0.029289
0.0304808
0.0309934
0.0328645
0.0333046
0.0359834
0.0362071
0.0413558
0.0414278
0.0470934
0.0675439
0.00805532
0.0025678
0.000461875
0.000118229
6.99587e-05
6.50807e-05
6.7e-05
7.06066e-05
7.5016e-05
7.99964e-05
8.56077e-05
9.1817e-05
9.85373e-05
0.000105739
0.000113263
0.000120947
0.000128686
0.000136192
0.000143226
0.000149639
0.000155264
0.000159867
0.000163237
0.000165296
0.000166042
0.000165507
0.000163373
0.000159988
0.000155333
0.000149561
0.000143129
0.00013629
0.00012898
0.00012123
0.00011318
0.000105034
9.6936e-05
8.89447e-05
8.11305e-05
7.36113e-05
6.64751e-05
5.97524e-05
5.3454e-05
4.76088e-05
4.22346e-05
3.73357e-05
3.2894e-05
2.88863e-05
2.53175e-05
2.21339e-05
1.92974e-05
1.68007e-05
1.4624e-05
1.27422e-05
1.11281e-05
9.7572e-06
8.60205e-06
7.64397e-06
6.85158e-06
6.22172e-06
5.70801e-06
5.33456e-06
5.05202e-06
4.82253e-06
4.7185e-06
4.69827e-06
4.71199e-06
4.77569e-06
4.88474e-06
5.03406e-06
5.21907e-06
5.43629e-06
5.68263e-06
5.95616e-06
6.25493e-06
6.5785e-06
6.92757e-06
7.30163e-06
7.70033e-06
8.1247e-06
8.57436e-06
9.05177e-06
9.55572e-06
1.00836e-05
1.06435e-05
1.12588e-05
1.19161e-05
1.27096e-05
1.34699e-05
1.44235e-05
1.58491e-05
1.7633e-05
1.97016e-05
2.20006e-05
2.44856e-05
2.71249e-05
2.98947e-05
3.27755e-05
3.57534e-05
3.88179e-05
4.19598e-05
4.51715e-05
4.84472e-05
5.17826e-05
5.51737e-05
5.86157e-05
6.21036e-05
6.56353e-05
6.92111e-05
7.28332e-05
7.65039e-05
8.02238e-05
8.39928e-05
8.78117e-05
9.16829e-05
9.56103e-05
9.95986e-05
0.000103653
0.000107777
0.000111977
0.000116253
0.00012061
0.000125051
0.000129583
0.000134214
0.00013895
0.000143796
0.000148758
0.000153845
0.000159063
0.00016442
0.000169921
0.000175572
0.000181383
0.000187364
0.000193528
0.000199886
0.000206444
0.000213207
0.000220183
0.000227385
0.000234828
0.000242528
0.000250497
0.000258743
0.000267274
0.000276102
0.000285247
0.000294732
0.000304579
0.000314805
0.000325428
0.000336468
0.000347944
0.000359886
0.000372327
0.0003853
0.00039886
0.000413059
0.000427962
0.000443639
0.000460173
0.00047767
0.000496271
0.000516189
0.000537453
0.000561165
0.000585328
0.000617155
0.000640379
0.000695663
0.000706279
0.000806285
0.00081818
0.000990898
0.000992966
0.00138727
0.00141512
0.00192253
0.00423442
0.015932
0.00527246
0.000878014
0.000175793
8.20812e-05
7.21713e-05
7.47875e-05
7.99236e-05
8.66263e-05
9.42003e-05
0.000102598
0.000111875
0.000121907
0.00013241
0.000143276
0.000154149
0.000164803
0.000174903
0.000184006
0.00019197
0.000198539
0.000203442
0.000206517
0.000207777
0.000207392
0.000205027
0.000200768
0.000195111
0.000188261
0.000180269
0.000171246
0.000161478
0.000151244
0.000140749
0.000130178
0.000119692
0.000109412
9.9446e-05
8.99208e-05
8.09253e-05
7.24822e-05
6.45937e-05
5.72918e-05
5.0605e-05
4.45261e-05
3.90109e-05
3.40301e-05
2.9571e-05
2.55974e-05
2.20833e-05
1.89912e-05
1.6278e-05
1.39089e-05
1.18485e-05
1.00612e-05
8.51585e-06
7.18555e-06
6.04555e-06
5.07203e-06
4.24331e-06
3.54012e-06
2.94569e-06
2.4451e-06
2.0246e-06
1.67287e-06
1.37947e-06
1.1353e-06
9.32848e-07
7.65577e-07
6.27843e-07
5.14805e-07
4.2236e-07
3.4704e-07
2.85915e-07
2.36503e-07
1.96736e-07
1.64908e-07
1.39593e-07
1.1963e-07
1.03966e-07
9.19547e-08
8.26307e-08
7.59272e-08
7.0429e-08
6.67898e-08
6.52205e-08
6.45211e-08
6.44629e-08
6.53678e-08
6.61307e-08
6.96375e-08
7.25941e-08
7.93562e-08
9.15988e-08
1.07985e-07
1.27735e-07
1.50355e-07
1.75506e-07
2.02948e-07
2.32492e-07
2.63965e-07
2.9722e-07
3.32134e-07
3.68595e-07
4.06496e-07
4.45712e-07
4.86109e-07
5.27584e-07
5.70079e-07
6.13572e-07
6.58048e-07
7.03456e-07
7.49734e-07
7.96824e-07
8.447e-07
8.93382e-07
9.42915e-07
9.93348e-07
1.04471e-06
1.09701e-06
1.15024e-06
1.20439e-06
1.25951e-06
1.3157e-06
1.37309e-06
1.43175e-06
1.4917e-06
1.55299e-06
1.61568e-06
1.67988e-06
1.74571e-06
1.81328e-06
1.88268e-06
1.954e-06
2.02738e-06
2.10297e-06
2.18092e-06
2.26134e-06
2.34434e-06
2.43002e-06
2.51859e-06
2.61024e-06
2.70518e-06
2.80357e-06
2.9055e-06
3.01112e-06
3.12067e-06
3.23445e-06
3.35286e-06
3.47621e-06
3.60474e-06
3.73873e-06
3.87862e-06
4.02469e-06
4.17761e-06
4.33798e-06
4.50645e-06
4.68415e-06
4.87211e-06
5.07182e-06
5.28497e-06
5.51365e-06
5.76054e-06
6.02921e-06
6.32562e-06
6.64998e-06
7.03359e-06
7.42114e-06
8.01331e-06
8.36971e-06
9.57784e-06
9.72524e-06
1.20351e-05
1.23542e-05
1.70276e-05
1.74906e-05
2.98106e-05
3.32456e-05
5.37412e-05
0.000194243
0.0261144
0.00902846
0.00144047
0.000246876
9.89246e-05
8.44866e-05
8.89369e-05
9.74585e-05
0.000108495
0.000120913
0.0001348
0.000150028
0.000166362
0.000183291
0.000200377
0.000217121
0.000232811
0.000247073
0.000259131
0.000268789
0.00027576
0.000279879
0.000281009
0.000279557
0.000275053
0.00026821
0.000259281
0.000248616
0.000236512
0.000223253
0.000209243
0.000194882
0.000180412
0.000165978
0.000151777
0.000138045
0.000124947
0.000112556
0.000100904
9.00322e-05
7.99792e-05
7.07635e-05
6.23709e-05
5.47614e-05
4.78885e-05
4.17183e-05
3.62188e-05
3.13431e-05
2.70331e-05
2.32335e-05
1.99006e-05
1.69945e-05
1.44701e-05
1.22822e-05
1.03919e-05
8.76667e-06
7.37556e-06
6.18806e-06
5.17676e-06
4.3185e-06
3.59303e-06
2.98177e-06
2.46793e-06
2.03724e-06
1.67738e-06
1.37777e-06
1.12899e-06
9.2286e-07
7.52518e-07
6.12177e-07
4.96879e-07
4.02379e-07
3.25104e-07
2.6207e-07
2.10785e-07
1.69165e-07
1.35471e-07
1.08263e-07
8.63428e-08
6.87207e-08
5.45838e-08
4.3269e-08
3.42384e-08
2.70496e-08
2.13383e-08
1.68116e-08
1.32315e-08
1.04052e-08
8.18298e-09
6.43538e-09
5.07165e-09
4.00491e-09
3.18105e-09
2.54453e-09
2.09178e-09
1.79092e-09
1.61096e-09
1.53244e-09
1.53574e-09
1.60757e-09
1.73795e-09
1.91722e-09
2.13846e-09
2.39639e-09
2.68677e-09
3.00592e-09
3.35049e-09
3.71775e-09
4.10577e-09
4.51335e-09
4.93947e-09
5.38281e-09
5.84195e-09
6.3155e-09
6.8024e-09
7.30233e-09
7.81532e-09
8.34138e-09
8.88029e-09
9.43183e-09
9.99519e-09
1.05699e-08
1.1156e-08
1.17548e-08
1.23673e-08
1.29941e-08
1.36352e-08
1.42904e-08
1.496e-08
1.56452e-08
1.63474e-08
1.70681e-08
1.78083e-08
1.85689e-08
1.93507e-08
2.01554e-08
2.09844e-08
2.18395e-08
2.27221e-08
2.36339e-08
2.4577e-08
2.55534e-08
2.65651e-08
2.76136e-08
2.87e-08
2.98265e-08
3.09964e-08
3.22136e-08
3.34829e-08
3.48081e-08
3.61915e-08
3.76365e-08
3.91499e-08
4.07357e-08
4.24034e-08
4.41619e-08
4.60195e-08
4.79934e-08
5.00987e-08
5.23574e-08
5.47984e-08
5.74554e-08
6.03725e-08
6.36115e-08
6.72756e-08
7.13637e-08
7.64431e-08
8.15198e-08
9.02331e-08
9.47727e-08
1.14105e-07
1.1742e-07
1.54428e-07
1.65002e-07
2.49273e-07
2.78465e-07
5.3812e-07
7.05896e-07
1.33659e-06
7.96837e-06
0.0381647
0.0135338
0.00209536
0.000323461
0.000123378
0.0001072
0.000116704
0.00013253
0.000152569
0.000175242
0.000200878
0.00022918
0.000259234
0.000289956
0.000320071
0.000348517
0.000373493
0.00039424
0.000409712
0.000419882
0.000424277
0.000423581
0.000417838
0.000407402
0.000393601
0.000376641
0.000357234
0.000336158
0.000314036
0.000291358
0.000268574
0.000246071
0.000224164
0.000203128
0.000183191
0.000164475
0.000147009
0.00013081
0.00011592
0.000102358
9.00724e-05
7.89742e-05
6.89885e-05
6.00611e-05
5.21307e-05
4.51146e-05
3.89217e-05
3.34712e-05
2.86961e-05
2.45344e-05
2.09204e-05
1.77887e-05
1.50812e-05
1.27499e-05
1.07515e-05
9.04371e-06
7.58679e-06
6.34692e-06
5.29595e-06
4.4086e-06
3.66111e-06
3.03245e-06
2.50519e-06
2.06467e-06
1.69785e-06
1.39296e-06
1.13996e-06
9.30625e-07
7.58025e-07
6.16122e-07
4.99666e-07
4.04267e-07
3.26327e-07
2.62846e-07
2.11269e-07
1.69445e-07
1.35599e-07
1.08281e-07
8.62901e-08
6.86226e-08
5.44544e-08
4.31178e-08
3.40711e-08
2.6871e-08
2.11514e-08
1.66149e-08
1.30241e-08
1.01887e-08
7.9561e-09
6.20112e-09
4.82391e-09
3.7452e-09
2.90189e-09
2.24447e-09
1.73323e-09
1.33622e-09
1.02846e-09
7.90734e-10
6.07624e-10
4.66992e-10
3.59355e-10
2.77302e-10
2.1507e-10
1.68195e-10
1.3321e-10
1.07414e-10
8.87017e-11
7.5447e-11
6.64029e-11
6.05937e-11
5.73557e-11
5.5829e-11
5.6108e-11
5.73967e-11
5.95721e-11
6.24511e-11
6.58907e-11
6.97863e-11
7.40619e-11
7.86629e-11
8.354e-11
8.86545e-11
9.39806e-11
9.95087e-11
1.05236e-10
1.1116e-10
1.1727e-10
1.23558e-10
1.30018e-10
1.36654e-10
1.4348e-10
1.50507e-10
1.57745e-10
1.652e-10
1.72877e-10
1.80783e-10
1.88937e-10
1.97355e-10
2.06059e-10
2.15067e-10
2.24398e-10
2.3407e-10
2.44101e-10
2.54502e-10
2.65285e-10
2.7648e-10
2.88126e-10
3.00266e-10
3.12951e-10
3.26227e-10
3.40111e-10
3.5464e-10
3.69905e-10
3.85956e-10
4.02906e-10
4.2087e-10
4.3995e-10
4.60361e-10
4.82298e-10
5.06038e-10
5.3199e-10
5.60619e-10
5.92525e-10
6.28647e-10
6.70442e-10
7.18058e-10
7.79645e-10
8.41846e-10
9.56687e-10
1.01703e-09
1.28631e-09
1.3704e-09
1.89686e-09
2.21962e-09
3.53848e-09
4.79408e-09
9.83379e-09
1.70315e-08
4.0407e-08
3.21398e-07
0.0522777
0.0182675
0.00274937
0.00040246
0.0001662
0.000154119
0.000177542
0.000210858
0.000252397
0.000301284
0.000357852
0.000421
0.000487718
0.000555165
0.000618697
0.000673296
0.000715838
0.000744199
0.000756258
0.000756544
0.000744307
0.0007211
0.000690619
0.00065445
0.000614363
0.00057189
0.000528332
0.000484761
0.000441979
0.000400613
0.000361195
0.000324125
0.000289608
0.000257696
0.000228384
0.000201651
0.00017745
0.000155679
0.000136179
0.000118767
0.000103268
8.95386e-05
7.744e-05
6.6817e-05
5.75045e-05
4.93555e-05
4.225e-05
3.60824e-05
3.07466e-05
2.6138e-05
2.21633e-05
1.87454e-05
1.58179e-05
1.33186e-05
1.11885e-05
9.37562e-06
7.83692e-06
6.53595e-06
5.43944e-06
4.51672e-06
3.74131e-06
3.09147e-06
2.54894e-06
2.09733e-06
1.72192e-06
1.41027e-06
1.1523e-06
9.39549e-07
7.64558e-07
6.20819e-07
5.02916e-07
4.06468e-07
3.27841e-07
2.63909e-07
2.12004e-07
1.69925e-07
1.35896e-07
1.08462e-07
8.6398e-08
6.86818e-08
5.4481e-08
4.31239e-08
3.40667e-08
2.68605e-08
2.11368e-08
1.65985e-08
1.30075e-08
1.01739e-08
7.94304e-09
6.18966e-09
4.81361e-09
3.73601e-09
2.89385e-09
2.23764e-09
1.72733e-09
1.33095e-09
1.0235e-09
7.85668e-10
6.02082e-10
4.60624e-10
3.51848e-10
2.68345e-10
2.04332e-10
1.55344e-10
1.17934e-10
8.94288e-11
6.77478e-11
5.12816e-11
3.87943e-11
2.93393e-11
2.21945e-11
1.68075e-11
1.27577e-11
9.7189e-12
7.4429e-12
5.74111e-12
4.47183e-12
3.52921e-12
2.83405e-12
2.32611e-12
1.95909e-12
1.69773e-12
1.51539e-12
1.39226e-12
1.31373e-12
1.26511e-12
1.25269e-12
1.25487e-12
1.27137e-12
1.29935e-12
1.33638e-12
1.38081e-12
1.43156e-12
1.48775e-12
1.54861e-12
1.61359e-12
1.68246e-12
1.75515e-12
1.83162e-12
1.91183e-12
1.99581e-12
2.08362e-12
2.17533e-12
2.27102e-12
2.37077e-12
2.47482e-12
2.58348e-12
2.69714e-12
2.81631e-12
2.94153e-12
3.07298e-12
3.21089e-12
3.35627e-12
3.50969e-12
3.6723e-12
3.84556e-12
4.03057e-12
4.22988e-12
4.44585e-12
4.68179e-12
4.94327e-12
5.23679e-12
5.57078e-12
5.96121e-12
6.4275e-12
6.9909e-12
7.74296e-12
8.62978e-12
1.01479e-11
1.16886e-11
1.53589e-11
1.97805e-11
2.885e-11
5.1323e-11
9.92909e-11
2.37702e-10
6.29908e-10
1.66751e-09
5.02315e-09
2.90676e-08
0.0695547
0.022744
0.00332045
0.000499222
0.000262812
0.000266304
0.000333068
0.000416107
0.000522201
0.000654786
0.000813237
0.000999211
0.00119567
0.001388
0.00155454
0.00167774
0.00173985
0.00175463
0.00171767
0.00164147
0.00154169
0.00142596
0.00130314
0.00118019
0.00106143
0.000949291
0.000844943
0.000748931
0.00066136
0.000582009
0.000510508
0.000446434
0.000389308
0.000338622
0.000293861
0.000254497
0.000219977
0.000189754
0.000163352
0.000140366
0.000120424
0.000103154
8.82051e-05
7.52783e-05
6.41273e-05
5.45376e-05
4.63075e-05
3.92497e-05
3.32024e-05
2.80316e-05
2.36223e-05
1.98712e-05
1.66845e-05
1.39804e-05
1.16903e-05
9.75579e-06
8.12592e-06
6.75527e-06
5.60417e-06
4.63914e-06
3.83222e-06
3.15948e-06
2.59981e-06
2.13479e-06
1.74901e-06
1.42984e-06
1.16665e-06
9.50128e-07
7.72195e-07
6.26154e-07
5.06599e-07
4.09061e-07
3.29703e-07
2.65222e-07
2.12882e-07
1.70487e-07
1.36256e-07
1.08696e-07
8.65476e-08
6.8769e-08
5.45247e-08
4.31412e-08
3.40699e-08
2.68553e-08
2.1126e-08
1.6585e-08
1.29931e-08
1.01604e-08
7.93111e-09
6.17854e-09
4.80379e-09
3.72728e-09
2.88615e-09
2.23134e-09
1.72229e-09
1.32665e-09
1.01988e-09
7.82627e-10
5.99535e-10
4.58526e-10
3.50167e-10
2.67013e-10
2.03263e-10
1.54464e-10
1.17199e-10
8.88082e-11
6.72155e-11
5.08108e-11
3.83597e-11
2.89221e-11
2.17832e-11
1.6396e-11
1.23378e-11
9.28335e-12
6.98446e-12
5.25381e-12
3.95117e-12
2.97184e-12
2.23686e-12
1.6859e-12
1.27291e-12
9.63084e-13
7.30336e-13
5.55393e-13
4.24017e-13
3.25506e-13
2.51728e-13
1.9641e-13
1.54779e-13
1.23306e-13
9.94318e-14
8.13126e-14
6.75812e-14
5.7185e-14
4.93109e-14
4.33404e-14
3.88263e-14
3.54458e-14
3.29454e-14
3.11298e-14
2.97797e-14
2.89865e-14
2.85555e-14
2.83844e-14
2.84151e-14
2.86263e-14
2.89934e-14
2.94965e-14
3.01281e-14
3.08821e-14
3.17495e-14
3.27147e-14
3.37734e-14
3.49254e-14
3.61762e-14
3.75454e-14
3.90451e-14
4.07075e-14
4.2578e-14
4.46881e-14
4.7207e-14
5.02461e-14
5.40613e-14
5.92806e-14
6.64805e-14
7.76134e-14
9.44348e-14
1.26506e-13
1.93831e-13
3.637e-13
7.65315e-13
2.01465e-12
5.10364e-12
1.58064e-11
4.38294e-11
1.31199e-10
4.01386e-10
1.07603e-09
3.19819e-09
9.85571e-09
0.0940807
0.0263876
0.00374699
0.000701143
0.00050775
0.000600049
0.000809135
0.00107223
0.0014309
0.00189471
0.00246117
0.00315121
0.00386498
0.0045556
0.00505373
0.00531516
0.00539187
0.00515505
0.00479891
0.0043315
0.00383523
0.00333589
0.00286086
0.00243219
0.0020582
0.00173941
0.00147034
0.001244
0.00105342
0.000892485
0.000756271
0.000640871
0.000543051
0.000460086
0.000389674
0.000329904
0.000279184
0.000236176
0.000199734
0.000168863
0.000142698
0.000120503
0.000101682
8.5744e-05
7.22612e-05
6.08503e-05
5.11838e-05
4.29992e-05
3.6083e-05
3.02483e-05
2.53266e-05
2.11741e-05
1.76742e-05
1.4731e-05
1.22608e-05
1.01894e-05
8.45342e-06
7.0004e-06
5.78696e-06
4.77589e-06
3.93483e-06
3.23598e-06
2.65606e-06
2.17576e-06
1.77898e-06
1.452e-06
1.18299e-06
9.61932e-07
7.80526e-07
6.32017e-07
5.10805e-07
4.12117e-07
3.31878e-07
2.66702e-07
2.13856e-07
1.71133e-07
1.36695e-07
1.08994e-07
8.67361e-08
6.88771e-08
5.45803e-08
4.31678e-08
3.408e-08
2.68549e-08
2.11181e-08
1.65725e-08
1.29794e-08
1.01472e-08
7.91892e-09
6.1673e-09
4.79342e-09
3.71788e-09
2.87823e-09
2.22492e-09
1.71701e-09
1.32213e-09
1.01603e-09
7.79415e-10
5.96889e-10
4.56392e-10
3.48476e-10
2.65668e-10
2.02172e-10
1.53574e-10
1.16483e-10
8.82436e-11
6.67725e-11
5.0459e-11
3.80745e-11
2.86887e-11
2.15936e-11
1.62431e-11
1.22142e-11
9.18212e-12
6.90056e-12
5.18423e-12
3.89423e-12
2.926e-12
2.20011e-12
1.65609e-12
1.24821e-12
9.42073e-13
7.12031e-13
5.39109e-13
4.09215e-13
3.11752e-13
2.3863e-13
1.8367e-13
1.42181e-13
1.10691e-13
8.66902e-14
6.83668e-14
5.4357e-14
4.35933e-14
3.52655e-14
2.87697e-14
2.36746e-14
1.96638e-14
1.64919e-14
1.39761e-14
1.19777e-14
1.03821e-14
9.09662e-15
8.05198e-15
7.19529e-15
6.48933e-15
5.90176e-15
5.40837e-15
4.99214e-15
4.63628e-15
4.33151e-15
4.06623e-15
3.8327e-15
3.62346e-15
3.42988e-15
3.25631e-15
3.10583e-15
2.97024e-15
2.84729e-15
2.8095e-15
2.82421e-15
2.93192e-15
3.21321e-15
3.85256e-15
5.2549e-15
8.44255e-15
1.59595e-14
3.51402e-14
8.45623e-14
2.24914e-13
5.9832e-13
1.73798e-12
4.79849e-12
1.42655e-11
4.09596e-11
1.15567e-10
3.44176e-10
9.09901e-10
2.51516e-09
6.85762e-09
0.126559
0.0289967
0.00412361
0.00126894
0.00123365
0.00172898
0.00245153
0.00349969
0.00493318
0.00679144
0.00901391
0.0116733
0.0143812
0.0169567
0.0183119
0.0188968
0.0185201
0.016691
0.0149152
0.0127633
0.0107626
0.00887379
0.0071648
0.00569962
0.0044939
0.00354106
0.00279908
0.00222591
0.00178281
0.00143813
0.00116741
0.000952563
0.000780374
0.000641318
0.0005284
0.000436302
0.000360907
0.000298989
0.000248001
0.000205921
0.000171136
0.000142335
0.000118455
9.86259e-05
8.21322e-05
6.83916e-05
5.69391e-05
4.73972e-05
3.94462e-05
3.28126e-05
2.72718e-05
2.26459e-05
1.87896e-05
1.55778e-05
1.29014e-05
1.06705e-05
8.81287e-06
7.26942e-06
5.989e-06
4.92724e-06
4.04708e-06
3.31846e-06
2.71662e-06
2.22054e-06
1.81218e-06
1.47638e-06
1.20058e-06
9.74462e-07
7.89498e-07
6.38536e-07
5.15555e-07
4.15504e-07
3.3421e-07
2.68273e-07
2.14925e-07
1.71879e-07
1.37215e-07
1.09339e-07
8.69465e-08
6.89973e-08
5.4647e-08
4.32044e-08
3.40974e-08
2.68573e-08
2.11108e-08
1.656e-08
1.29654e-08
1.01338e-08
7.90613e-09
6.1552e-09
4.7825e-09
3.70834e-09
2.87025e-09
2.21827e-09
1.71134e-09
1.31737e-09
1.01204e-09
7.76065e-10
5.94112e-10
4.54157e-10
3.46703e-10
2.64242e-10
2.01006e-10
1.52628e-10
1.1573e-10
8.76499e-11
6.63013e-11
5.00798e-11
3.77674e-11
2.84418e-11
2.13971e-11
1.60861e-11
1.20862e-11
9.07562e-12
6.81155e-12
5.11102e-12
3.83562e-12
2.88008e-12
2.16443e-12
1.62832e-12
1.22651e-12
9.25099e-13
6.98808e-13
5.28833e-13
4.012e-13
3.05412e-13
2.33536e-13
1.79514e-13
1.38752e-13
1.07849e-13
8.43517e-14
6.64734e-14
5.28409e-14
4.23728e-14
3.42613e-14
2.79254e-14
2.29561e-14
1.90445e-14
1.5954e-14
1.3505e-14
1.15592e-14
1.00036e-14
8.74609e-15
7.72444e-15
6.88734e-15
6.19816e-15
5.62483e-15
5.14228e-15
4.73481e-15
4.38589e-15
4.08634e-15
3.8265e-15
3.59853e-15
3.39371e-15
3.20653e-15
3.04396e-15
2.9008e-15
2.7667e-15
2.67636e-15
2.66787e-15
2.70095e-15
2.82793e-15
3.15182e-15
3.88035e-15
5.46588e-15
9.00696e-15
1.72674e-14
3.77671e-14
9.03697e-14
2.3359e-13
6.20464e-13
1.72489e-12
4.79563e-12
1.34778e-11
3.86769e-11
1.0431e-10
2.99943e-10
7.83008e-10
2.02593e-09
5.69581e-09
0.196984
0.0315301
0.00521928
0.00285908
0.00361431
0.0055635
0.00841475
0.0126316
0.0182016
0.0250205
0.0330778
0.042226
0.0518583
0.0596536
0.0627415
0.063188
0.0595411
0.0504973
0.0441741
0.0363122
0.0298424
0.0239377
0.0187015
0.0142559
0.0106261
0.00786731
0.00580563
0.00429976
0.00321255
0.00243088
0.00186549
0.00145066
0.0011407
0.000905099
0.000723432
0.000581587
0.000469663
0.000380685
0.000309587
0.000252514
0.000206485
0.000169181
0.000138834
0.000114089
9.38597e-05
7.72879e-05
6.36888e-05
5.25114e-05
4.33094e-05
3.57232e-05
2.94651e-05
2.43019e-05
2.00395e-05
1.65166e-05
1.36028e-05
1.11941e-05
9.20523e-06
7.56388e-06
6.20863e-06
5.08945e-06
4.16639e-06
3.40664e-06
2.78217e-06
2.26908e-06
1.84764e-06
1.50193e-06
1.21895e-06
9.878e-07
7.99254e-07
6.45618e-07
5.20583e-07
4.18993e-07
3.36612e-07
2.69949e-07
2.16113e-07
1.72714e-07
1.37779e-07
1.09698e-07
8.71659e-08
6.91303e-08
5.47279e-08
4.32516e-08
3.41193e-08
2.68599e-08
2.11032e-08
1.65468e-08
1.29515e-08
1.01206e-08
7.89213e-09
6.1422e-09
4.77101e-09
3.69836e-09
2.86256e-09
2.21206e-09
1.70542e-09
1.31191e-09
1.00759e-09
7.72612e-10
5.91388e-10
4.51959e-10