/*--------------------------------*- C++ -*----------------------------------*\
| =========                 |                                                 |
| \\      /  F ield         | OpenFOAM: The Open Source CFD Toolbox           |
|  \\    /   O peration     | Version:  2.1.x                                 |
|   \\  /    A nd           | Web:      www.OpenFOAM.org                      |
|    \\/     M anipulation  |                                                 |
\*---------------------------------------------------------------------------*/
FoamFile
{
    version     2.0;
    format      ascii;
    class       volScalarField;
    location    "0.003";
    object      k_0;
}
// * * * * * * * * * * * * * * * * * * * * * * * * * * * * * * * * * * * * * //

dimensions      [0 2 -2 0 0 0 0];

internalField   nonuniform List<scalar> 
12225
(
9.24072
9.24118
7.03211
5.10811
3.87371
3.56791
3.15098
2.85958
2.66699
2.72364
2.80913
2.68978
2.65949
2.60726
3.11978
3.29201
3.83126
3.66189
2.45347
5.15732
5.44037
5.17451
4.45183
4.19195
3.82544
3.34315
3.05957
2.96532
2.81711
2.7124
2.61716
2.44576
2.39974
2.45332
2.53826
2.56406
0.19478
1.29033
1.89569
2.49038
2.51459
2.458
2.45915
2.42537
2.24434
1.91286
1.7899
1.8212
1.81324
1.6996
1.32749
1.20548
1.20477
1.2346
0.00998632
0.16177
0.355693
0.627666
0.788827
0.776447
0.795858
0.940482
0.96227
0.842382
0.734643
0.753655
0.779821
0.751861
0.598529
0.429778
0.393596
0.407913
0.000429486
0.0117499
0.0334458
0.0957528
0.156413
0.14303
0.147651
0.229641
0.267288
0.232991
0.193754
0.200342
0.226014
0.218648
0.167246
0.104349
0.0977019
0.106676
4.00633e-05
0.000634277
0.00220793
0.0104904
0.0187121
0.0159304
0.0172148
0.0392592
0.0486138
0.042777
0.0354545
0.0378188
0.0417055
0.0391725
0.0279844
0.0186795
0.0180191
0.0199535
2.35688e-05
5.61637e-05
0.000148422
0.000798259
0.00151663
0.00123315
0.00137189
0.00406336
0.00530002
0.00481941
0.00362032
0.00347171
0.00343822
0.00329378
0.00282495
0.00196427
0.00189488
0.00192116
2.6648e-05
3.45577e-05
4.99822e-05
0.000134166
0.000198119
0.000164374
0.00016212
0.000364189
0.000457093
0.000425496
0.000319373
0.000294417
0.000299597
0.000291342
0.000239223
0.000201004
0.000204597
0.000221277
2.38324e-05
4.32982e-05
4.73579e-05
6.05886e-05
0.000143774
0.000169895
0.000145336
0.000138451
0.000146092
0.000138228
0.000101195
9.20934e-05
9.06096e-05
9.20919e-05
9.78652e-05
0.000107931
0.000113493
0.000138735
3.7597e-05
3.55637e-05
3.36476e-05
4.33174e-05
6.52801e-05
6.54354e-05
6.2526e-05
6.89762e-05
8.23842e-05
7.90731e-05
7.5793e-05
8.13048e-05
0.000114516
0.000130019
0.000126863
0.000126142
0.000137877
0.000195544
2.19538e-05
2.35254e-05
2.55741e-05
2.70781e-05
3.32982e-05
4.12536e-05
4.30506e-05
4.74463e-05
5.95381e-05
8.66046e-05
9.54142e-05
0.000103387
0.000108899
0.000131943
0.000170392
0.000183832
0.000181398
0.000145716
2.19484e-05
2.55122e-05
2.50665e-05
2.51452e-05
2.87521e-05
3.5493e-05
3.85484e-05
4.10894e-05
4.12435e-05
4.09784e-05
4.16458e-05
4.77917e-05
8.08912e-05
8.82668e-05
8.05136e-05
6.96524e-05
6.92325e-05
8.1434e-05
2.26399e-05
2.24459e-05
2.24221e-05
2.37106e-05
2.90174e-05
3.14261e-05
3.10613e-05
2.98853e-05
3.00351e-05
3.09568e-05
3.24702e-05
3.59726e-05
3.62579e-05
3.74071e-05
4.44458e-05
4.98238e-05
5.73126e-05
7.42616e-05
2.19138e-05
2.28385e-05
2.31106e-05
2.41486e-05
2.89866e-05
4.37375e-05
5.36698e-05
5.58814e-05
5.40612e-05
4.4744e-05
3.90618e-05
3.86672e-05
4.13148e-05
4.3195e-05
4.39421e-05
4.91732e-05
5.46513e-05
6.50543e-05
2.04558e-05
2.28217e-05
2.5699e-05
2.6215e-05
2.6658e-05
2.87772e-05
3.82215e-05
5.75217e-05
6.85552e-05
7.40089e-05
7.43524e-05
7.06594e-05
6.45404e-05
6.50069e-05
6.39295e-05
5.40205e-05
5.29716e-05
0.0001227
2.26662e-05
2.47518e-05
2.46384e-05
2.45412e-05
2.48445e-05
2.59602e-05
2.82071e-05
3.34124e-05
4.25412e-05
4.77965e-05
5.24342e-05
6.11695e-05
6.61303e-05
6.56613e-05
6.49356e-05
6.52878e-05
5.99337e-05
6.1614e-05
2.07957e-05
2.37066e-05
2.55945e-05
2.60038e-05
2.59098e-05
2.61922e-05
2.6967e-05
2.72685e-05
2.766e-05
2.80223e-05
2.92018e-05
3.66436e-05
4.3965e-05
4.53618e-05
4.50821e-05
4.28834e-05
4.29174e-05
4.49166e-05
2.15901e-05
2.29263e-05
2.57142e-05
3.00258e-05
2.9594e-05
2.72285e-05
2.64869e-05
2.67055e-05
2.8376e-05
3.25874e-05
3.45871e-05
3.55389e-05
3.53568e-05
3.47966e-05
3.52242e-05
3.68582e-05
3.93202e-05
4.42939e-05
2.25229e-05
2.22331e-05
2.30166e-05
2.78322e-05
3.79146e-05
4.06848e-05
4.07364e-05
3.94079e-05
3.79159e-05
3.81795e-05
3.87763e-05
3.87201e-05
3.78196e-05
3.75712e-05
3.79224e-05
3.88808e-05
4.01632e-05
4.09483e-05
2.1721e-05
2.2928e-05
2.43297e-05
2.55172e-05
2.57764e-05
2.59799e-05
2.68579e-05
2.83793e-05
2.88524e-05
3.0013e-05
3.25886e-05
3.40123e-05
3.44908e-05
3.50363e-05
3.53264e-05
3.51612e-05
3.56275e-05
3.79865e-05
2.28739e-05
2.36338e-05
2.34506e-05
2.35022e-05
2.39258e-05
2.48557e-05
2.73539e-05
2.92208e-05
2.94738e-05
2.98311e-05
3.05348e-05
3.21776e-05
3.61843e-05
4.40014e-05
5.03197e-05
5.14394e-05
5.11052e-05
4.95347e-05
2.23993e-05
2.32826e-05
2.52475e-05
2.64115e-05
2.74626e-05
3.00221e-05
3.29753e-05
3.35131e-05
3.39362e-05
3.53247e-05
3.83428e-05
4.53695e-05
6.12684e-05
7.67821e-05
9.02606e-05
9.7198e-05
9.89752e-05
9.8477e-05
2.10795e-05
2.19804e-05
3.01248e-05
4.50936e-05
4.7274e-05
4.50275e-05
4.31383e-05
4.44672e-05
5.38327e-05
8.30764e-05
0.000108094
0.000120486
0.000123765
0.000126397
0.000132426
0.00014525
0.000167356
0.00017641
2.41618e-05
2.86109e-05
3.43737e-05
5.64158e-05
8.61661e-05
0.0001107
0.00015669
0.000261741
0.000538282
0.000861242
0.00103862
0.00109423
0.00111847
0.00116388
0.0013146
0.00148038
0.00158242
0.00157918
2.19164e-05
4.8375e-05
0.000180552
0.00067006
0.00119039
0.00170736
0.00270349
0.00511276
0.008681
0.0113029
0.0124266
0.0126564
0.0127785
0.0131062
0.0143
0.0153067
0.0154442
0.0152955
2.96279e-05
0.000649862
0.00402328
0.0138033
0.0207695
0.0277485
0.0415949
0.0671148
0.0884027
0.10029
0.103508
0.103305
0.102635
0.103261
0.1042
0.103765
0.10233
0.0993372
0.000566792
0.0166129
0.0763459
0.176097
0.22829
0.294481
0.375286
0.446055
0.48614
0.499172
0.49835
0.494405
0.487781
0.481836
0.468919
0.456679
0.431542
0.414866
0.0235748
0.28957
0.859957
1.1963
1.40919
1.60978
1.72092
1.72619
1.70779
1.65577
1.58229
1.52731
1.46573
1.41616
1.33802
1.27704
1.18243
1.13316
0.614431
3.10304
4.32975
4.4236
4.29203
3.99871
3.69133
3.39066
3.11385
2.86013
2.64823
2.4743
2.32646
2.19548
2.07233
1.9733
1.86882
1.80932
6.76196
9.58737
8.49404
6.40802
4.98703
4.04813
3.41392
2.96696
2.64197
2.38492
2.19009
2.02984
1.90434
1.79512
1.71037
1.64063
1.58462
1.53009
8.94048e-05
7.17067e-05
7.39899e-05
9.45706e-05
0.000137817
0.00020318
0.000299736
0.000437883
0.000629695
0.000889283
0.00123269
0.00167806
0.00224568
0.00295852
0.00384229
0.00492527
0.00623942
0.00782025
0.00970675
0.0119413
0.0145707
0.017645
0.0212185
0.0253464
0.0300873
0.0355007
0.0416462
0.048583
0.0563689
0.0650563
0.0746901
0.0853116
0.0969615
0.109666
0.123433
0.138263
0.154162
0.171118
0.189096
0.208049
0.227938
0.248718
0.270317
0.292653
0.315655
0.339252
0.36336
0.387882
0.412735
0.437845
0.46313
0.488502
0.513885
0.539215
0.564431
0.589462
0.614253
0.638758
0.662938
0.686749
0.710153
0.733128
0.755652
0.777706
0.79927
0.820337
0.840904
0.860965
0.880514
0.899554
0.918094
0.936139
0.953697
0.970653
0.987037
1.00289
1.01826
1.03316
1.04763
1.06168
1.07534
1.08862
1.10154
1.11413
1.12639
1.13834
1.14999
1.16135
1.17243
1.18325
1.19383
1.20416
1.21427
1.22415
1.23383
1.24332
1.25261
1.26173
1.27066
1.27944
1.28806
1.29654
1.30487
1.31306
1.32112
1.32905
1.33687
1.34458
1.35217
1.35966
1.36704
1.37433
1.38153
1.38864
1.39567
1.40261
1.40947
1.41625
1.42296
1.42959
1.43616
1.44266
1.44909
1.45545
1.46175
1.46799
1.47417
1.48029
1.48635
1.49235
1.49829
1.50417
1.51
1.51577
1.52148
1.52715
1.53275
1.5383
1.54379
1.54922
1.55459
1.55991
1.56517
1.57036
1.5755
1.58057
1.58558
1.59053
1.59541
1.60023
1.60498
1.60966
1.61427
1.61881
1.62326
1.62764
1.63193
1.63614
1.64025
1.64425
1.64814
1.65189
1.65549
1.65893
1.66217
1.66518
1.66792
1.67032
1.67228
1.67377
1.67438
1.67486
1.67217
1.67275
1.66168
1.66181
1.64102
1.6275
1.60561
1.51809
0.000746656
0.000270767
9.11453e-05
6.17268e-05
5.91676e-05
6.07779e-05
6.40281e-05
6.82429e-05
7.36903e-05
8.0614e-05
8.93284e-05
0.000100226
0.000113707
0.000130226
0.000150289
0.00017445
0.000203335
0.0002376
0.000277976
0.000325299
0.000380517
0.000444649
0.000518899
0.000604638
0.000703463
0.000817094
0.000947472
0.00109688
0.00126784
0.00146305
0.00168548
0.00193838
0.00222522
0.00254966
0.00291535
0.00332588
0.00378547
0.00429829
0.00486823
0.00549902
0.00619417
0.00695742
0.00779222
0.00870135
0.00968703
0.0107514
0.0118963
0.0131232
0.0144325
0.0158242
0.0172981
0.0188536
0.0204894
0.0222037
0.0239944
0.0258588
0.0277944
0.0297981
0.0318666
0.0339961
0.0361829
0.0384235
0.0407142
0.0430511
0.0454301
0.0478478
0.0503006
0.0527852
0.0552978
0.0578352
0.060395
0.0629761
0.0655512
0.0682535
0.0710702
0.0739903
0.0769944
0.080059
0.0831663
0.0863078
0.0894778
0.0926684
0.0958714
0.0990827
0.102291
0.10549
0.10868
0.111857
0.115021
0.118173
0.121311
0.124436
0.127547
0.130645
0.133731
0.136806
0.13987
0.142924
0.145968
0.149003
0.152033
0.155058
0.158082
0.161103
0.164123
0.167143
0.170165
0.173192
0.176224
0.179265
0.182314
0.185373
0.188446
0.191533
0.194637
0.19776
0.200903
0.204066
0.207252
0.210464
0.213702
0.216968
0.220262
0.223587
0.226944
0.230333
0.233755
0.237214
0.240711
0.244247
0.247824
0.251441
0.255098
0.258797
0.262541
0.266332
0.270171
0.274058
0.277993
0.281976
0.286008
0.290092
0.29423
0.298423
0.30267
0.306972
0.311329
0.315743
0.320214
0.324746
0.329339
0.333994
0.338711
0.34349
0.348331
0.353237
0.358207
0.363244
0.368351
0.373528
0.378775
0.384094
0.389482
0.394944
0.40048
0.406087
0.411792
0.417518
0.423503
0.429102
0.435946
0.440475
0.44945
0.452774
0.464031
0.466059
0.483139
0.48309
0.501998
0.55994
0.00305523
0.000976917
0.000208657
7.9962e-05
6.17243e-05
6.05979e-05
6.21878e-05
6.48444e-05
6.79218e-05
7.14587e-05
7.54498e-05
7.99043e-05
8.48009e-05
9.00936e-05
9.57197e-05
0.00010159
0.000107621
0.000113664
0.000119575
0.000125224
0.000130463
0.000135116
0.000139054
0.000142226
0.000144574
0.000146027
0.000146544
0.000146279
0.000145339
0.000143704
0.000141021
0.000137397
0.000133455
0.000129365
0.000125348
0.000121452
0.000118107
0.000115391
0.000113045
0.000111821
0.000111608
0.000112367
0.000114278
0.000117423
0.000121867
0.000127655
0.000134839
0.000143489
0.000153653
0.000165375
0.00017869
0.000193647
0.000210308
0.000228713
0.000248889
0.000270874
0.000294723
0.000320479
0.000348164
0.000377795
0.000409392
0.000442989
0.000478593
0.0005162
0.000555812
0.000597428
0.000641042
0.000686641
0.0007342
0.000783702
0.000835126
0.000888439
0.000943615
0.00100069
0.00106004
0.001122
0.00118687
0.00125459
0.00132509
0.00139849
0.00147473
0.00155382
0.00163676
0.0017184
0.0018134
0.00192046
0.00203857
0.0021661
0.00230168
0.00244392
0.00259163
0.0027439
0.00290016
0.00305993
0.00322266
0.00338792
0.00355536
0.00372464
0.00389557
0.00406805
0.00424198
0.0044173
0.00459399
0.00477202
0.00495138
0.00513204
0.00531405
0.00549751
0.00568259
0.00586941
0.00605811
0.00624879
0.00644161
0.00663677
0.00683445
0.00703484
0.0072381
0.00744438
0.00765393
0.00786694
0.00808363
0.00830419
0.00852878
0.00875757
0.00899077
0.00922859
0.00947123
0.00971902
0.00997223
0.0102312
0.010496
0.0107669
0.0110439
0.0113273
0.0116176
0.0119151
0.0122202
0.0125331
0.0128538
0.0131826
0.0135197
0.0138656
0.0142207
0.0145855
0.0149602
0.0153448
0.0157397
0.0161453
0.016562
0.0169906
0.0174314
0.0178847
0.0183511
0.0188308
0.0193243
0.0198321
0.020355
0.0208938
0.0214496
0.0220231
0.0226155
0.0232276
0.0238609
0.024517
0.0251983
0.0259057
0.0266507
0.0274107
0.0282709
0.0290248
0.0302036
0.030716
0.0325709
0.0330071
0.0356639
0.0358893
0.0410066
0.0410737
0.0467203
0.0670857
0.00808366
0.00257435
0.000462564
0.000118292
6.99073e-05
6.50073e-05
6.69159e-05
7.05078e-05
7.4898e-05
7.98531e-05
8.54304e-05
9.15956e-05
9.82622e-05
0.000105397
0.000112844
0.000120438
0.000128074
0.000135473
0.000142396
0.000148694
0.000154204
0.000158696
0.000161964
0.00016393
0.000164602
0.000164002
0.000161813
0.000158407
0.000153742
0.000147981
0.00014158
0.000134777
0.000127512
0.000119817
0.000111831
0.000103756
9.57343e-05
8.78219e-05
8.00885e-05
7.26508e-05
6.55949e-05
5.895e-05
5.27263e-05
4.69524e-05
4.16454e-05
3.6809e-05
3.2425e-05
2.84705e-05
2.49498e-05
2.18091e-05
1.90119e-05
1.65507e-05
1.44054e-05
1.25511e-05
1.09609e-05
9.61059e-06
8.47304e-06
7.52968e-06
6.74971e-06
6.12977e-06
5.62425e-06
5.25737e-06
4.97869e-06
4.75277e-06
4.65194e-06
4.63213e-06
4.64572e-06
4.70857e-06
4.81606e-06
4.96316e-06
5.14533e-06
5.35917e-06
5.60164e-06
5.87083e-06
6.16479e-06
6.48312e-06
6.82651e-06
7.19439e-06
7.58648e-06
8.00377e-06
8.44593e-06
8.9154e-06
9.41071e-06
9.93003e-06
1.04805e-05
1.10849e-05
1.17317e-05
1.25116e-05
1.32584e-05
1.4199e-05
1.56036e-05
1.73601e-05
1.93966e-05
2.16595e-05
2.41052e-05
2.67025e-05
2.9428e-05
3.22627e-05
3.5193e-05
3.82084e-05
4.13e-05
4.44602e-05
4.76834e-05
5.09653e-05
5.43021e-05
5.76889e-05
6.11208e-05
6.4596e-05
6.81145e-05
7.16788e-05
7.52909e-05
7.89515e-05
8.26604e-05
8.64186e-05
9.02283e-05
9.40933e-05
9.80184e-05
0.000102008
0.000106068
0.000110201
0.00011441
0.000118698
0.000123069
0.00012753
0.000132088
0.000136749
0.000141519
0.000146404
0.000151411
0.000156548
0.000161821
0.000167236
0.000172799
0.000178519
0.000184406
0.000190475
0.000196734
0.00020319
0.000209848
0.000216716
0.000223806
0.000231133
0.000238714
0.00024656
0.000254678
0.000263077
0.000271768
0.000280772
0.00029011
0.000299805
0.000309874
0.000320333
0.000331204
0.000342502
0.000354262
0.000366511
0.000379286
0.000392638
0.00040662
0.000421296
0.000436734
0.000453017
0.00047025
0.000488571
0.000508188
0.00052914
0.000552487
0.000576326
0.000607613
0.000630652
0.000684915
0.000695481
0.000794175
0.000805868
0.000975968
0.000978351
0.00136778
0.00139518
0.00189804
0.00418898
0.0159879
0.0052894
0.000879882
0.000175975
8.19821e-05
7.20126e-05
7.46055e-05
7.97084e-05
8.63719e-05
9.3896e-05
0.000102231
0.000111429
0.000121366
0.00013176
0.000142499
0.000153235
0.000163739
0.000173679
0.000182627
0.00019044
0.000196867
0.00020164
0.000204602
0.00020577
0.000205318
0.00020289
0.000198616
0.00019296
0.000186132
0.000178181
0.000169217
0.000159526
0.000149382
0.000138986
0.000128521
0.000118147
0.000107978
9.81257e-05
8.87121e-05
7.98248e-05
7.14851e-05
6.36949e-05
5.64861e-05
4.98863e-05
4.38877e-05
3.84461e-05
3.35328e-05
2.9135e-05
2.52168e-05
2.17526e-05
1.87046e-05
1.60303e-05
1.36957e-05
1.16655e-05
9.90471e-06
8.38242e-06
7.07219e-06
5.94957e-06
4.99101e-06
4.17511e-06
3.48289e-06
2.89781e-06
2.40515e-06
1.99136e-06
1.64527e-06
1.35661e-06
1.11641e-06
9.17259e-07
7.52735e-07
6.17272e-07
5.06105e-07
4.15197e-07
3.41134e-07
2.8103e-07
2.32446e-07
1.93346e-07
1.62052e-07
1.37162e-07
1.17532e-07
1.0213e-07
9.03165e-08
8.11448e-08
7.45476e-08
6.91377e-08
6.55524e-08
6.3999e-08
6.33025e-08
6.32408e-08
6.41111e-08
6.48588e-08
6.82952e-08
7.11708e-08
7.78565e-08
8.98927e-08
1.05973e-07
1.25339e-07
1.4751e-07
1.72155e-07
1.99042e-07
2.27985e-07
2.58814e-07
2.91389e-07
3.25585e-07
3.61294e-07
3.98413e-07
4.36818e-07
4.76378e-07
5.16993e-07
5.58607e-07
6.012e-07
6.44754e-07
6.89221e-07
7.34541e-07
7.80656e-07
8.27541e-07
8.75217e-07
9.23728e-07
9.73121e-07
1.02342e-06
1.07465e-06
1.12678e-06
1.17982e-06
1.23381e-06
1.28885e-06
1.34506e-06
1.40251e-06
1.46124e-06
1.52127e-06
1.58268e-06
1.64558e-06
1.71007e-06
1.77626e-06
1.84424e-06
1.91411e-06
1.986e-06
2.06006e-06
2.13643e-06
2.21522e-06
2.29653e-06
2.38047e-06
2.46724e-06
2.55704e-06
2.65006e-06
2.74646e-06
2.84633e-06
2.94981e-06
3.05714e-06
3.16863e-06
3.28464e-06
3.40551e-06
3.53145e-06
3.66274e-06
3.7998e-06
3.94292e-06
4.09277e-06
4.24991e-06
4.41499e-06
4.58912e-06
4.77331e-06
4.96902e-06
5.17791e-06
5.40202e-06
5.64399e-06
5.90735e-06
6.19785e-06
6.51596e-06
6.8917e-06
7.27261e-06
7.85124e-06
8.20488e-06
9.3844e-06
9.53076e-06
1.1799e-05
1.21135e-05
1.66916e-05
1.71567e-05
2.92664e-05
3.26434e-05
5.28659e-05
0.000191576
0.0261967
0.00906472
0.00144463
0.000247231
9.87176e-05
8.41657e-05
8.85632e-05
9.70122e-05
0.000107965
0.000120279
0.000134035
0.000149105
0.000165252
0.000181972
0.000198825
0.000215323
0.000230764
0.000244778
0.000256602
0.000266051
0.00027285
0.000276829
0.000277863
0.000276345
0.000271808
0.000264986
0.000256106
0.000245519
0.000233521
0.000220389
0.000206523
0.00019232
0.000178014
0.000163748
0.000149717
0.000136154
0.000123221
0.000110988
9.94862e-05
8.87564e-05
7.88368e-05
6.97451e-05
6.14665e-05
5.39613e-05
4.71834e-05
4.10995e-05
3.56777e-05
3.08717e-05
2.66237e-05
2.2879e-05
1.95949e-05
1.67317e-05
1.4245e-05
1.20898e-05
1.02281e-05
8.62771e-06
7.258e-06
6.08888e-06
5.09333e-06
4.24855e-06
3.53455e-06
2.93301e-06
2.42738e-06
2.00362e-06
1.64959e-06
1.35486e-06
1.11015e-06
9.074e-07
7.39869e-07
6.01855e-07
4.88477e-07
3.95556e-07
3.19576e-07
2.57603e-07
2.07184e-07
1.66269e-07
1.33147e-07
1.06403e-07
8.48566e-08
6.7536e-08
5.36414e-08
4.25208e-08
3.36456e-08
2.65807e-08
2.09679e-08
1.65193e-08
1.3001e-08
1.02235e-08
8.03974e-09
6.32241e-09
4.98221e-09
3.93393e-09
3.12419e-09
2.49879e-09
2.05411e-09
1.75819e-09
1.58079e-09
1.50283e-09
1.50497e-09
1.57425e-09
1.70087e-09
1.8753e-09
2.09077e-09
2.34209e-09
2.62511e-09
2.93622e-09
3.27213e-09
3.63017e-09
4.00847e-09
4.40584e-09
4.8213e-09
5.25355e-09
5.7012e-09
6.1629e-09
6.63763e-09
7.12507e-09
7.62525e-09
8.13819e-09
8.66366e-09
9.20147e-09
9.75081e-09
1.03112e-08
1.08828e-08
1.14667e-08
1.2064e-08
1.26753e-08
1.33005e-08
1.39395e-08
1.45926e-08
1.52609e-08
1.59459e-08
1.66488e-08
1.73708e-08
1.81126e-08
1.88753e-08
1.96603e-08
2.0469e-08
2.13031e-08
2.21642e-08
2.30537e-08
2.39738e-08
2.49263e-08
2.59134e-08
2.69363e-08
2.79963e-08
2.90953e-08
3.02367e-08
3.14244e-08
3.26628e-08
3.39559e-08
3.53057e-08
3.67157e-08
3.81924e-08
3.97398e-08
4.13671e-08
4.3083e-08
4.48957e-08
4.68221e-08
4.88766e-08
5.1081e-08
5.34634e-08
5.60568e-08
5.8904e-08
6.20662e-08
6.56425e-08
6.96365e-08
7.45898e-08
7.95643e-08
8.80377e-08
9.25428e-08
1.11345e-07
1.14604e-07
1.50805e-07
1.61177e-07
2.43425e-07
2.7218e-07
5.26479e-07
6.91027e-07
1.31146e-06
7.8399e-06
0.0382505
0.0135991
0.0021031
0.000323947
0.000122916
0.000106558
0.00011593
0.000131594
0.00015144
0.000173878
0.000199213
0.000227143
0.000256766
0.000287008
0.00031661
0.000344536
0.000369027
0.000389344
0.000404465
0.000414362
0.00041859
0.000417832
0.000412084
0.00040174
0.000388084
0.000371324
0.000352159
0.000331357
0.000309531
0.000287163
0.000264692
0.000242503
0.000220903
0.000200164
0.00018051
0.000162062
0.000144845
0.000128877
0.000114202
0.000100836
8.87284e-05
7.77909e-05
6.79502e-05
5.91532e-05
5.13394e-05
4.44268e-05
3.83254e-05
3.29558e-05
2.82521e-05
2.41529e-05
2.05935e-05
1.75093e-05
1.48431e-05
1.25476e-05
1.05801e-05
8.89885e-06
7.46467e-06
6.24427e-06
5.20992e-06
4.33668e-06
3.60113e-06
2.98256e-06
2.46379e-06
2.03043e-06
1.6696e-06
1.3697e-06
1.12086e-06
9.14978e-07
7.45244e-07
6.05707e-07
4.91196e-07
3.97396e-07
3.20767e-07
2.58359e-07
2.07656e-07
1.66541e-07
1.33271e-07
1.06419e-07
8.48042e-08
6.74394e-08
5.35143e-08
4.23725e-08
3.34817e-08
2.64058e-08
2.0785e-08
1.63269e-08
1.27982e-08
1.00119e-08
7.81801e-09
6.09348e-09
4.74016e-09
3.68017e-09
2.8515e-09
2.20551e-09
1.70315e-09
1.31303e-09
1.01062e-09
7.77015e-10
5.97078e-10
4.58879e-10
3.53096e-10
2.7245e-10
2.11277e-10
1.65191e-10
1.30786e-10
1.05406e-10
8.69835e-11
7.39214e-11
6.49942e-11
5.92444e-11
5.60224e-11
5.44616e-11
5.46999e-11
5.59131e-11
5.79989e-11
6.07746e-11
6.40994e-11
6.78706e-11
7.20134e-11
7.64744e-11
8.12051e-11
8.61676e-11
9.13363e-11
9.6702e-11
1.02262e-10
1.08013e-10
1.13946e-10
1.20052e-10
1.26324e-10
1.32769e-10
1.39398e-10
1.46223e-10
1.53253e-10
1.60494e-10
1.67951e-10
1.75632e-10
1.83552e-10
1.91731e-10
2.00187e-10
2.08938e-10
2.18004e-10
2.27402e-10
2.37149e-10
2.47255e-10
2.57732e-10
2.6861e-10
2.79926e-10
2.91723e-10
3.0405e-10
3.16952e-10
3.30444e-10
3.44564e-10
3.59399e-10
3.74999e-10
3.91472e-10
4.08933e-10
4.27477e-10
4.47317e-10
4.68642e-10
4.9172e-10
5.16949e-10
5.44783e-10
5.75806e-10
6.10936e-10
6.51571e-10
6.97925e-10
7.57747e-10
8.18522e-10
9.29757e-10
9.89526e-10
1.25065e-09
1.33285e-09
1.84638e-09
2.16224e-09
3.44562e-09
4.67955e-09
9.60215e-09
1.66809e-08
3.96969e-08
3.1568e-07
0.0523138
0.0183695
0.00276174
0.000402848
0.000165153
0.000152802
0.000175882
0.000208804
0.000249847
0.000298112
0.000353881
0.000415954
0.000481411
0.000547434
0.000609505
0.000662744
0.000704154
0.000731694
0.000743378
0.000743499
0.000731427
0.000708642
0.000678752
0.000643283
0.00060396
0.000562281
0.000519523
0.000476737
0.000434714
0.00039407
0.000355332
0.000318895
0.000284961
0.000253582
0.000224753
0.000198457
0.000174648
0.000153227
0.00013404
0.000116903
0.000101649
8.81348e-05
7.62258e-05
6.57687e-05
5.66012e-05
4.85787e-05
4.15836e-05
3.5512e-05
3.02594e-05
2.57226e-05
2.18099e-05
1.84455e-05
1.5564e-05
1.31041e-05
1.10077e-05
9.2235e-06
7.7093e-06
6.42915e-06
5.35025e-06
4.44239e-06
3.67951e-06
3.04024e-06
2.50657e-06
2.06236e-06
1.69311e-06
1.3866e-06
1.13291e-06
9.23695e-07
7.51626e-07
6.10291e-07
4.94365e-07
3.99541e-07
3.22243e-07
2.59396e-07
2.08372e-07
1.67008e-07
1.3356e-07
1.06594e-07
8.49087e-08
6.74966e-08
5.35397e-08
4.23781e-08
3.3477e-08
2.63952e-08
2.07705e-08
1.63107e-08
1.27818e-08
9.99731e-09
7.80516e-09
6.0822e-09
4.73003e-09
3.67114e-09
2.8436e-09
2.1988e-09
1.69736e-09
1.30786e-09
1.00575e-09
7.72052e-10
5.91654e-10
4.52653e-10
3.45765e-10
2.6371e-10
2.00807e-10
1.52666e-10
1.15903e-10
8.78906e-11
6.65837e-11
5.04013e-11
3.81287e-11
2.88359e-11
2.18134e-11
1.65185e-11
1.25376e-11
9.55012e-12
7.3123e-12
5.63875e-12
4.39026e-12
3.46284e-12
2.77865e-12
2.27846e-12
1.91678e-12
1.65894e-12
1.47877e-12
1.3568e-12
1.27893e-12
1.22981e-12
1.21672e-12
1.21805e-12
1.23329e-12
1.25982e-12
1.29522e-12
1.33788e-12
1.38673e-12
1.44088e-12
1.4996e-12
1.56235e-12
1.62888e-12
1.69914e-12
1.77307e-12
1.85063e-12
1.93185e-12
2.01678e-12
2.1055e-12
2.19809e-12
2.2946e-12
2.39528e-12
2.50042e-12
2.61041e-12
2.72575e-12
2.84695e-12
2.97418e-12
3.10767e-12
3.24838e-12
3.39689e-12
3.55429e-12
3.72202e-12
3.90113e-12
4.0941e-12
4.30321e-12
4.53168e-12
4.78492e-12
5.06922e-12
5.3928e-12
5.77124e-12
6.2232e-12
6.77016e-12
7.49917e-12
8.36365e-12
9.83379e-12
1.13474e-11
1.49087e-11
1.92382e-11
2.81606e-11
5.03273e-11
9.77414e-11
2.35348e-10
6.25132e-10
1.65941e-09
5.00649e-09
2.8775e-08
0.0694571
0.022884
0.00333723
0.00049889
0.000260492
0.00026349
0.000329279
0.000411241
0.000515831
0.000646397
0.000802247
0.000984437
0.00117607
0.00136293
0.00152425
0.00164289
0.00170223
0.00171578
0.001679
0.00160439
0.001507
0.00139428
0.00127474
0.00115506
0.00103939
0.000930066
0.000828228
0.000734433
0.000648808
0.00057116
0.000501148
0.000438372
0.000382375
0.000332668
0.000288755
0.000250123
0.000216233
0.000186552
0.000160616
0.000138031
0.000118432
0.000101456
8.67588e-05
7.40474e-05
6.3081e-05
5.36493e-05
4.5554e-05
3.86112e-05
3.26622e-05
2.75751e-05
2.32373e-05
1.95469e-05
1.64117e-05
1.37514e-05
1.14984e-05
9.5953e-06
7.99193e-06
6.6436e-06
5.51129e-06
4.56205e-06
3.76838e-06
3.10672e-06
2.55628e-06
2.09895e-06
1.71957e-06
1.40572e-06
1.14693e-06
9.34029e-07
7.5908e-07
6.15494e-07
4.97956e-07
4.02071e-07
3.24061e-07
2.60675e-07
2.09226e-07
1.67555e-07
1.33909e-07
1.06822e-07
8.5054e-08
6.75809e-08
5.35817e-08
4.23944e-08
3.34798e-08
2.63899e-08
2.07596e-08
1.62972e-08
1.27676e-08
9.98401e-09
7.79341e-09
6.07125e-09
4.72036e-09
3.66254e-09
2.83602e-09
2.19261e-09
1.69241e-09
1.30364e-09
1.00219e-09
7.6906e-10
5.89148e-10
4.5059e-10
3.44114e-10
2.62403e-10
1.99757e-10
1.51802e-10
1.15182e-10
8.72821e-11
6.60623e-11
4.99405e-11
3.77037e-11
2.84284e-11
2.14123e-11
1.61176e-11
1.2129e-11
9.12677e-12
6.86706e-12
5.16581e-12
3.88523e-12
2.92247e-12
2.19987e-12
1.65815e-12
1.25206e-12
9.47368e-13
7.18459e-13
5.46393e-13
4.1717e-13
3.20265e-13
2.47679e-13
1.93243e-13
1.52267e-13
1.2128e-13
9.77683e-14
7.99178e-14
6.63842e-14
5.61318e-14
4.83609e-14
4.24633e-14
3.79992e-14
3.46512e-14
3.21695e-14
3.03657e-14
2.90191e-14
2.82077e-14
2.77654e-14
2.75772e-14
2.75886e-14
2.77749e-14
2.81142e-14
2.8587e-14
2.91854e-14
2.99033e-14
3.07317e-14
3.16552e-14
3.26695e-14
3.37743e-14
3.49746e-14
3.62897e-14
3.77311e-14
3.93302e-14
4.11308e-14
4.31637e-14
4.55948e-14
4.85307e-14
5.22248e-14
5.72909e-14
6.4297e-14
7.51507e-14
9.16134e-14
1.23215e-13
1.90018e-13
3.58787e-13
7.59271e-13
2.00579e-12
5.09532e-12
1.57935e-11
4.38099e-11
1.31286e-10
4.01376e-10
1.07658e-09
3.2018e-09
9.83942e-09
0.0936585
0.0265554
0.00376593
0.000698677
0.000503132
0.000593574
0.000799956
0.00105943
0.00141257
0.00186873
0.00242461
0.00310023
0.00379295
0.00446039
0.00493801
0.00518489
0.00525359
0.00501927
0.00466869
0.00421259
0.00372902
0.00324373
0.00278295
0.0023676
0.00200538
0.00169645
0.00143544
0.00121559
0.0010302
0.000873431
0.000740576
0.000627904
0.000532313
0.000451175
0.00038227
0.000323742
0.000274051
0.000231896
0.000196162
0.000165879
0.000140202
0.000118414
9.99332e-05
8.42794e-05
7.10344e-05
5.98222e-05
5.03223e-05
4.22777e-05
3.54791e-05
2.97429e-05
2.49039e-05
2.08209e-05
1.73795e-05
1.44853e-05
1.20562e-05
1.00193e-05
8.31207e-06
6.8832e-06
5.68994e-06
4.69571e-06
3.86866e-06
3.18146e-06
2.61122e-06
2.13897e-06
1.74885e-06
1.42736e-06
1.16288e-06
9.4555e-07
7.67208e-07
6.21215e-07
5.02062e-07
4.05054e-07
3.26182e-07
2.62117e-07
2.10174e-07
1.68183e-07
1.34337e-07
1.07112e-07
8.5237e-08
6.76854e-08
5.3635e-08
4.24198e-08
3.34892e-08
2.63891e-08
2.07516e-08
1.62847e-08
1.27539e-08
9.97096e-09
7.78137e-09
6.06016e-09
4.71014e-09
3.65328e-09
2.82823e-09
2.1863e-09
1.68721e-09
1.29918e-09
9.984e-10
7.659e-10
5.86547e-10
4.48493e-10
3.42453e-10
2.61081e-10
1.98684e-10
1.50927e-10
1.14478e-10
8.67276e-11
6.56274e-11
4.9595e-11
3.74236e-11
2.81992e-11
2.12259e-11
1.59674e-11
1.20075e-11
9.0272e-12
6.78452e-12
5.09739e-12
3.82928e-12
2.87746e-12
2.16383e-12
1.62894e-12
1.22787e-12
9.26815e-13
7.00578e-13
5.30508e-13
4.02751e-13
3.06883e-13
2.34951e-13
1.80878e-13
1.40053e-13
1.09062e-13
8.54391e-14
6.74013e-14
5.36069e-14
4.30059e-14
3.48015e-14
2.84002e-14
2.33782e-14
1.9424e-14
1.62964e-14
1.38154e-14
1.18445e-14
1.02703e-14
9.00143e-15
7.96986e-15
7.12368e-15
6.42632e-15
5.84584e-15
5.35828e-15
4.94668e-15
4.59452e-15
4.29277e-15
4.03001e-15
3.79866e-15
3.59123e-15
3.39925e-15
3.22716e-15
3.07783e-15
2.94293e-15
2.82123e-15
2.78429e-15
2.79929e-15
2.90633e-15
3.18692e-15
3.82536e-15
5.22652e-15
8.41335e-15
1.59325e-14
3.51163e-14
8.45728e-14
2.24925e-13
5.98624e-13
1.73819e-12
4.80037e-12
1.42712e-11
4.09655e-11
1.15656e-10
3.44306e-10
9.10358e-10
2.51748e-09
6.85872e-09
0.125719
0.0291794
0.00414246
0.00126367
0.00122551
0.00171515
0.00242916
0.00346393
0.00487686
0.00670479
0.00888283
0.0114868
0.0141081
0.0165922
0.0178793
0.0184222
0.0180343
0.016245
0.0144932
0.0123932
0.0104387
0.00859979
0.00694015
0.00552083
0.00435548
0.00343524
0.00271889
0.00216521
0.00173666
0.00140272
0.00113993
0.000931006
0.000763308
0.000627707
0.000517478
0.000427493
0.000353774
0.000293193
0.000243276
0.00020206
0.000167972
0.000139737
0.000116318
9.6865e-05
8.06789e-05
6.71909e-05
5.59463e-05
4.65758e-05
3.87661e-05
3.22492e-05
2.68051e-05
2.22594e-05
1.84697e-05
1.5313e-05
1.26823e-05
1.04894e-05
8.66333e-06
7.14609e-06
5.88738e-06
4.84358e-06
3.97831e-06
3.26202e-06
2.67038e-06
2.1827e-06
1.78127e-06
1.45117e-06
1.18005e-06
9.57776e-07
7.75964e-07
6.27579e-07
5.06698e-07
4.08358e-07
3.28453e-07
2.63646e-07
2.11215e-07
1.6891e-07
1.34843e-07
1.07447e-07
8.54409e-08
6.78014e-08
5.36994e-08
4.24549e-08
3.35057e-08
2.6391e-08
2.07441e-08
1.62722e-08
1.27401e-08
9.9577e-09
7.76874e-09
6.04822e-09
4.69937e-09
3.64389e-09
2.82038e-09
2.17976e-09
1.68164e-09
1.29451e-09
9.94477e-10
7.62604e-10
5.83816e-10
4.46297e-10
3.40711e-10
2.59679e-10
1.97538e-10
1.49998e-10
1.13739e-10
8.61443e-11
6.51645e-11
4.92225e-11
3.71218e-11
2.79565e-11
2.10328e-11
1.58129e-11
1.18815e-11
8.92235e-12
6.69689e-12
5.02533e-12
3.77162e-12
2.8323e-12
2.12873e-12
1.60163e-12
1.20653e-12
9.1013e-13
6.87585e-13
5.20413e-13
3.94874e-13
3.00649e-13
2.29937e-13
1.76786e-13
1.36676e-13
1.06264e-13
8.31378e-14
6.55394e-14
5.21168e-14
4.18065e-14
3.38149e-14
2.7571e-14
2.26731e-14
1.8817e-14
1.57699e-14
1.33549e-14
1.14359e-14
9.90111e-15
8.65988e-15
7.65121e-15
6.82468e-15
6.14425e-15
5.57815e-15
5.10156e-15
4.69887e-15
4.35383e-15
4.05755e-15
3.80056e-15
3.57509e-15
3.37244e-15
3.18732e-15
3.02661e-15
2.88484e-15
2.75222e-15
2.66393e-15
2.65625e-15
2.68969e-15
2.81729e-15
3.14194e-15
3.87154e-15
5.45887e-15
9.00277e-15
1.72684e-14
3.77762e-14
9.04062e-14
2.33657e-13
6.20694e-13
1.7253e-12
4.7966e-12
1.34833e-11
3.86807e-11
1.04368e-10
3.00075e-10
7.83176e-10
2.02745e-09
5.69759e-09
0.194876
0.0316596
0.00523187
0.00285269
0.00360273
0.00553869
0.00836627
0.0125464
0.0180509
0.024765
0.0326526
0.041577
0.0508927
0.0584555
0.0614157
0.0617276
0.0581988
0.0493285
0.0430507
0.0353637
0.0290089
0.0232317
0.0181181
0.0137895
0.0102695
0.00760058
0.00561124
0.00416055
0.00311376
0.00236063
0.00181495
0.00141365
0.00111309
0.000884154
0.000707313
0.000569035
0.0004598
0.00037288
0.000303373
0.000247541
0.000202487
0.000165953
0.000136221
0.000111967
9.21326e-05
7.58798e-05
6.25389e-05
5.1571e-05
4.25394e-05
3.50921e-05
2.89475e-05
2.38771e-05
1.96906e-05
1.62301e-05
1.33675e-05
1.10008e-05
9.04664e-06
7.43375e-06
6.1019e-06
5.002e-06
4.09482e-06
3.34814e-06
2.7344e-06
2.23011e-06
1.81589e-06
1.4761e-06
1.19798e-06
9.70796e-07
7.85488e-07
6.34489e-07
5.11601e-07
4.11757e-07
3.30795e-07
2.6528e-07
2.12373e-07
1.69723e-07
1.35392e-07
1.07796e-07
8.56534e-08
6.79302e-08
5.37776e-08
4.25004e-08
3.35265e-08
2.6393e-08
2.07362e-08
1.6259e-08
1.27263e-08
9.94467e-09
7.75489e-09
6.0354e-09
4.68804e-09
3.63406e-09
2.81282e-09
2.17364e-09
1.6758e-09
1.28913e-09
9.90105e-10