/*--------------------------------*- C++ -*----------------------------------*\
| =========                 |                                                 |
| \\      /  F ield         | OpenFOAM: The Open Source CFD Toolbox           |
|  \\    /   O peration     | Version:  2.1.x                                 |
|   \\  /    A nd           | Web:      www.OpenFOAM.org                      |
|    \\/     M anipulation  |                                                 |
\*---------------------------------------------------------------------------*/
FoamFile
{
    version     2.0;
    format      ascii;
    class       volScalarField;
    location    "0.003";
    object      nuSgs;
}
// * * * * * * * * * * * * * * * * * * * * * * * * * * * * * * * * * * * * * //

dimensions      [0 2 -1 0 0 0 0];

internalField   nonuniform List<scalar> 
12225
(
0.000201021
0.000197007
0.000168393
0.000140689
0.000119982
0.000112742
0.000103986
9.70789e-05
9.16843e-05
9.06849e-05
9.03723e-05
8.67972e-05
8.45313e-05
8.17602e-05
8.74004e-05
8.80868e-05
9.33848e-05
8.97765e-05
0.000108888
0.000154695
0.000155697
0.000148827
0.000135246
0.000128445
0.000120386
0.000110346
0.000103265
9.95673e-05
9.51357e-05
9.14956e-05
8.8135e-05
8.3443e-05
8.0858e-05
7.99502e-05
7.97677e-05
7.87273e-05
3.23063e-05
8.12446e-05
9.6429e-05
0.000108454
0.000106834
0.000103358
0.000101214
9.85706e-05
9.31948e-05
8.42265e-05
7.95324e-05
7.85632e-05
7.69163e-05
7.32492e-05
6.36762e-05
5.89245e-05
5.75518e-05
5.70694e-05
7.68046e-06
3.03002e-05
4.38323e-05
5.70543e-05
6.29581e-05
6.11966e-05
6.05219e-05
6.4231e-05
6.39504e-05
5.89112e-05
5.35826e-05
5.30222e-05
5.29646e-05
5.10853e-05
4.51262e-05
3.72353e-05
3.45246e-05
3.43695e-05
1.66763e-06
8.5975e-06
1.41354e-05
2.32094e-05
2.95467e-05
2.77147e-05
2.73933e-05
3.30876e-05
3.54266e-05
3.26088e-05
2.893e-05
2.86704e-05
2.98963e-05
2.89554e-05
2.51977e-05
1.93178e-05
1.80478e-05
1.84024e-05
5.33794e-07
2.10117e-06
3.80254e-06
8.01486e-06
1.07993e-05
9.75255e-06
9.8032e-06
1.42883e-05
1.58954e-05
1.46995e-05
1.30203e-05
1.30696e-05
1.35542e-05
1.29259e-05
1.08616e-05
8.57842e-06
8.15148e-06
8.36677e-06
4.32245e-07
6.54487e-07
1.03379e-06
2.31503e-06
3.23797e-06
2.86073e-06
2.90251e-06
4.81553e-06
5.5188e-06
5.1858e-06
4.40008e-06
4.19472e-06
4.0931e-06
3.93089e-06
3.60054e-06
2.92375e-06
2.77852e-06
2.75271e-06
4.10406e-07
4.56274e-07
5.34282e-07
8.47258e-07
1.0344e-06
9.24276e-07
8.88912e-07
1.27929e-06
1.43621e-06
1.36126e-06
1.16158e-06
1.07998e-06
1.06679e-06
1.03328e-06
9.26981e-07
8.21555e-07
8.14644e-07
8.22095e-07
4.09514e-07
5.45842e-07
5.63408e-07
6.19831e-07
9.29819e-07
1.00579e-06
9.14634e-07
8.70681e-07
8.76683e-07
8.40676e-07
7.0762e-07
6.54488e-07
6.34546e-07
6.25405e-07
6.28962e-07
6.49836e-07
6.50731e-07
7.11121e-07
5.63463e-07
5.40129e-07
5.11404e-07
5.60482e-07
6.82114e-07
6.71554e-07
6.43311e-07
6.57145e-07
7.08695e-07
6.81368e-07
6.51576e-07
6.57417e-07
7.5951e-07
8.03975e-07
7.82203e-07
7.61411e-07
7.77481e-07
8.88259e-07
4.64474e-07
4.69074e-07
4.79169e-07
4.83009e-07
5.22767e-07
5.73764e-07
5.73552e-07
5.8887e-07
6.40084e-07
7.60737e-07
7.86559e-07
8.04433e-07
8.0801e-07
8.60623e-07
9.68262e-07
9.93204e-07
9.71145e-07
8.60048e-07
4.98712e-07
5.30436e-07
5.15141e-07
5.0449e-07
5.24476e-07
5.72298e-07
5.85359e-07
5.9391e-07
5.83836e-07
5.69778e-07
5.61711e-07
5.8401e-07
7.41626e-07
7.70798e-07
7.2641e-07
6.5915e-07
6.41021e-07
6.69072e-07
5.51271e-07
5.37376e-07
5.25587e-07
5.27318e-07
5.70133e-07
5.84531e-07
5.70192e-07
5.47849e-07
5.37508e-07
5.34122e-07
5.3492e-07
5.5297e-07
5.44818e-07
5.40294e-07
5.74365e-07
5.9786e-07
6.24861e-07
7.17469e-07
5.83254e-07
5.83071e-07
5.74934e-07
5.75047e-07
6.13197e-07
7.37283e-07
8.07281e-07
8.1034e-07
7.8341e-07
7.02713e-07
6.38736e-07
6.20684e-07
6.26959e-07
6.3002e-07
6.21851e-07
6.40628e-07
6.72549e-07
7.13642e-07
6.08824e-07
6.27654e-07
6.54631e-07
6.48445e-07
6.4008e-07
6.49676e-07
7.2493e-07
8.77086e-07
9.44253e-07
9.6563e-07
9.50181e-07
9.11506e-07
8.51444e-07
8.36995e-07
8.16146e-07
7.37195e-07
7.08874e-07
1.05202e-06
6.91139e-07
7.09328e-07
6.93536e-07
6.77641e-07
6.67561e-07
6.67886e-07
6.81189e-07
7.22952e-07
8.00811e-07
8.3374e-07
8.54536e-07
9.05761e-07
9.27305e-07
9.06751e-07
8.82919e-07
8.70136e-07
8.22308e-07
8.17066e-07
7.14271e-07
7.46741e-07
7.61417e-07
7.53083e-07
7.36714e-07
7.25281e-07
7.2112e-07
7.11014e-07
7.0217e-07
6.92313e-07
6.8986e-07
7.50238e-07
8.11459e-07
8.10489e-07
7.93009e-07
7.58838e-07
7.4251e-07
7.46958e-07
7.33544e-07
7.39373e-07
7.66322e-07
8.15211e-07
7.94834e-07
7.47065e-07
7.19634e-07
7.07297e-07
7.11765e-07
7.47356e-07
7.56098e-07
7.52134e-07
7.35854e-07
7.15103e-07
7.0446e-07
7.04717e-07
7.11491e-07
7.40004e-07
7.06755e-07
6.89188e-07
6.85164e-07
7.32244e-07
8.42434e-07
8.5963e-07
8.44007e-07
8.1475e-07
7.81248e-07
7.67313e-07
7.58026e-07
7.42485e-07
7.19711e-07
7.02491e-07
6.91347e-07
6.84926e-07
6.81843e-07
6.74956e-07
6.53828e-07
6.5889e-07
6.65054e-07
6.68059e-07
6.58203e-07
6.47385e-07
6.43988e-07
6.49123e-07
6.41288e-07
6.40023e-07
6.53328e-07
6.5516e-07
6.47194e-07
6.39843e-07
6.30006e-07
6.15402e-07
6.05345e-07
6.10579e-07
6.33563e-07
6.32885e-07
6.18095e-07
6.05962e-07
5.98422e-07
5.97238e-07
6.13037e-07
6.22019e-07
6.12408e-07
6.03568e-07
5.97882e-07
6.00202e-07
6.20855e-07
6.71787e-07
7.07748e-07
7.03095e-07
6.87046e-07
6.63777e-07
5.90983e-07
5.91605e-07
6.03729e-07
6.05998e-07
6.05267e-07
6.19114e-07
6.36963e-07
6.29752e-07
6.20522e-07
6.19472e-07
6.31005e-07
6.68148e-07
7.59104e-07
8.36046e-07
8.9214e-07
9.10644e-07
9.02378e-07
8.82716e-07
5.44658e-07
5.42474e-07
6.15012e-07
7.47217e-07
7.54161e-07
7.22811e-07
6.91426e-07
6.8579e-07
7.32392e-07
8.88317e-07
1.00232e-06
1.04219e-06
1.0368e-06
1.02627e-06
1.02767e-06
1.0511e-06
1.10639e-06
1.11427e-06
5.45967e-07
5.85866e-07
6.29517e-07
7.87506e-07
9.61393e-07
1.06488e-06
1.23411e-06
1.54984e-06
2.16867e-06
2.72192e-06
2.94963e-06
2.97509e-06
2.94665e-06
2.94085e-06
3.04508e-06
3.17154e-06
3.22002e-06
3.15319e-06
4.92565e-07
7.15113e-07
1.35624e-06
2.57361e-06
3.38452e-06
3.94687e-06
4.82824e-06
6.44644e-06
8.29485e-06
9.33562e-06
9.62977e-06
9.53404e-06
9.38255e-06
9.29441e-06
9.47279e-06
9.62335e-06
9.48301e-06
9.25055e-06
5.44351e-07
2.48575e-06
6.03677e-06
1.10181e-05
1.33051e-05
1.49942e-05
1.78219e-05
2.21924e-05
2.5067e-05
2.62569e-05
2.61887e-05
2.56447e-05
2.50364e-05
2.45777e-05
2.41819e-05
2.36454e-05
2.30124e-05
2.22268e-05
2.24395e-06
1.18786e-05
2.47824e-05
3.71398e-05
4.14672e-05
4.5975e-05
5.07704e-05
5.42671e-05
5.56037e-05
5.52685e-05
5.41172e-05
5.282e-05
5.13937e-05
5.00501e-05
4.83864e-05
4.67953e-05
4.45874e-05
4.28434e-05
1.36124e-05
4.67666e-05
7.88446e-05
9.12032e-05
9.69678e-05
0.000101454
0.000102828
0.000100945
9.83996e-05
9.49797e-05
9.09547e-05
8.75359e-05
8.4021e-05
8.09342e-05
7.71031e-05
7.38243e-05
6.96138e-05
6.67746e-05
6.56643e-05
0.000144344
0.000167035
0.000165459
0.00015969
0.000151024
0.000142197
0.000133554
0.000125411
0.000117761
0.000111009
0.000105121
9.98684e-05
9.50558e-05
9.04839e-05
8.6507e-05
8.24802e-05
7.95155e-05
0.000205405
0.000239442
0.000220772
0.000187872
0.000162412
0.000143396
0.000129032
0.000117853
0.000108959
0.000101429
9.52263e-05
8.98125e-05
8.52163e-05
8.10465e-05
7.74924e-05
7.43485e-05
7.15818e-05
6.89161e-05
6.87528e-07
6.18254e-07
6.30409e-07
7.15414e-07
8.66814e-07
1.05631e-06
1.28762e-06
1.56188e-06
1.87962e-06
2.24151e-06
2.64824e-06
3.10054e-06
3.59923e-06
4.14547e-06
4.74058e-06
5.38584e-06
6.08297e-06
6.83382e-06
7.6402e-06
8.50382e-06
9.42658e-06
1.04102e-05
1.14562e-05
1.25657e-05
1.37395e-05
1.49781e-05
1.62812e-05
1.76485e-05
1.9079e-05
2.0571e-05
2.21217e-05
2.37285e-05
2.53891e-05
2.70997e-05
2.88554e-05
3.06512e-05
3.24836e-05
3.43484e-05
3.62393e-05
3.81505e-05
4.00778e-05
4.2017e-05
4.39625e-05
4.59085e-05
4.78511e-05
4.97868e-05
5.17114e-05
5.36203e-05
5.55104e-05
5.73794e-05
5.92245e-05
6.10429e-05
6.28325e-05
6.45921e-05
6.63205e-05
6.80162e-05
6.96783e-05
7.13066e-05
7.29009e-05
7.44609e-05
7.59864e-05
7.74779e-05
7.89361e-05
8.03612e-05
8.17538e-05
8.31146e-05
8.44448e-05
8.5745e-05
8.70159e-05
8.82585e-05
8.94742e-05
9.06636e-05
9.1828e-05
9.29623e-05
9.40685e-05
9.51494e-05
9.62071e-05
9.72435e-05
9.82599e-05
9.92577e-05
0.000100238
0.000101202
0.000102151
0.000103086
0.000104007
0.000104915
0.000105811
0.000106696
0.000107569
0.000108433
0.000109287
0.000110132
0.000110969
0.000111798
0.000112619
0.000113434
0.000114242
0.000115043
0.000115839
0.00011663
0.000117415
0.000118196
0.000118973
0.000119745
0.000120514
0.000121279
0.00012204
0.000122799
0.000123554
0.000124307
0.000125057
0.000125805
0.000126551
0.000127295
0.000128037
0.000128777
0.000129515
0.000130252
0.000130988
0.000131722
0.000132455
0.000133186
0.000133917
0.000134646
0.000135374
0.000136101
0.000136828
0.000137553
0.000138278
0.000139001
0.000139724
0.000140446
0.000141167
0.000141887
0.000142606
0.000143325
0.000144042
0.000144759
0.000145474
0.000146188
0.000146902
0.000147614
0.000148325
0.000149034
0.000149742
0.000150449
0.000151154
0.000151858
0.00015256
0.00015326
0.000153959
0.000154655
0.000155349
0.000156041
0.000156731
0.000157418
0.000158102
0.000158782
0.00015946
0.000160133
0.000160801
0.000161464
0.00016212
0.00016277
0.00016341
0.00016404
0.000164657
0.000165258
0.000165838
0.000166395
0.000166908
0.000167415
0.000167761
0.000168274
0.000168192
0.000168681
0.000168097
0.000167875
0.000167214
0.000163039
1.98553e-06
1.20068e-06
6.99499e-07
5.77867e-07
5.67872e-07
5.77696e-07
5.9514e-07
6.16649e-07
6.43126e-07
6.75208e-07
7.13471e-07
7.58625e-07
8.11126e-07
8.71355e-07
9.39625e-07
1.01615e-06
1.10116e-06
1.19474e-06
1.29702e-06
1.4082e-06
1.52855e-06
1.65829e-06
1.79781e-06
1.94757e-06
2.10816e-06
2.2801e-06
2.46395e-06
2.66047e-06
2.8704e-06
3.09435e-06
3.333e-06
3.58696e-06
3.85684e-06
4.14311e-06
4.44605e-06
4.76571e-06
5.1025e-06
5.4566e-06
5.8279e-06
6.2162e-06
6.62111e-06
7.04241e-06
7.47974e-06
7.93247e-06
8.39983e-06
8.8811e-06
9.37562e-06
9.88263e-06
1.04012e-05
1.09302e-05
1.1469e-05
1.20164e-05
1.25718e-05
1.3134e-05
1.37021e-05
1.42753e-05
1.48527e-05
1.54336e-05
1.6017e-05
1.66023e-05
1.71888e-05
1.77758e-05
1.83627e-05
1.89491e-05
1.95344e-05
2.01181e-05
2.06999e-05
2.12795e-05
2.18565e-05
2.24307e-05
2.3002e-05
2.35705e-05
2.41315e-05
2.47104e-05
2.53032e-05
2.59078e-05
2.65205e-05
2.7137e-05
2.77545e-05
2.83717e-05
2.89878e-05
2.96018e-05
3.02127e-05
3.08201e-05
3.14224e-05
3.20195e-05
3.26111e-05
3.31975e-05
3.37786e-05
3.43548e-05
3.49265e-05
3.54936e-05
3.60566e-05
3.66156e-05
3.7171e-05
3.7723e-05
3.8272e-05
3.8818e-05
3.93612e-05
3.99022e-05
4.04412e-05
4.09787e-05
4.15149e-05
4.205e-05
4.25841e-05
4.31175e-05
4.36506e-05
4.41836e-05
4.47168e-05
4.52506e-05
4.5785e-05
4.63203e-05
4.68568e-05
4.73949e-05
4.79348e-05
4.84767e-05
4.90207e-05
4.9567e-05
5.0116e-05
5.06678e-05
5.12225e-05
5.17805e-05
5.23417e-05
5.29064e-05
5.34747e-05
5.40466e-05
5.46224e-05
5.52023e-05
5.57865e-05
5.63752e-05
5.69684e-05
5.75661e-05
5.81683e-05
5.87751e-05
5.93869e-05
6.00038e-05
6.0626e-05
6.12535e-05
6.18862e-05
6.2524e-05
6.31672e-05
6.38158e-05
6.44702e-05
6.51304e-05
6.57964e-05
6.6468e-05
6.71454e-05
6.78286e-05
6.85178e-05
6.92131e-05
6.99147e-05
7.06225e-05
7.13365e-05
7.20567e-05
7.27831e-05
7.35158e-05
7.42549e-05
7.50004e-05
7.57527e-05
7.65117e-05
7.72775e-05
7.80499e-05
7.8829e-05
7.96149e-05
8.04077e-05
8.1207e-05
8.20155e-05
8.28253e-05
8.36604e-05
8.4456e-05
8.53745e-05
8.60635e-05
8.7187e-05
8.77603e-05
8.90982e-05
8.95473e-05
9.14297e-05
9.1686e-05
9.37207e-05
9.92455e-05
4.01385e-06
2.27949e-06
1.05783e-06
6.57511e-07
5.7997e-07
5.76771e-07
5.86435e-07
6.01029e-07
6.17395e-07
6.35623e-07
6.5558e-07
6.77203e-07
7.003e-07
7.24589e-07
7.49752e-07
7.75397e-07
8.01182e-07
8.26568e-07
8.51093e-07
8.74358e-07
8.95933e-07
9.15314e-07
9.32152e-07
9.46366e-07
9.57819e-07
9.66312e-07
9.7171e-07
9.74502e-07
9.75066e-07
9.73219e-07
9.67746e-07
9.5879e-07
9.48417e-07
9.37186e-07
9.25871e-07
9.1465e-07
9.05172e-07
8.97879e-07
8.91833e-07
8.90039e-07
8.9229e-07
8.9839e-07
9.09101e-07
9.24679e-07
9.45246e-07
9.70761e-07
1.00115e-06
1.03635e-06
1.07616e-06
1.12037e-06
1.1687e-06
1.22092e-06
1.27687e-06
1.3363e-06
1.39895e-06
1.46463e-06
1.5332e-06
1.60449e-06
1.67832e-06
1.75452e-06
1.83293e-06
1.91346e-06
1.99595e-06
2.08026e-06
2.16627e-06
2.25389e-06
2.34299e-06
2.43347e-06
2.52524e-06
2.6182e-06
2.71226e-06
2.80735e-06
2.90338e-06
3.00042e-06
3.09895e-06
3.19943e-06
3.30214e-06
3.40693e-06
3.51357e-06
3.62216e-06
3.73253e-06
3.84459e-06
3.95962e-06
4.07107e-06
4.19668e-06
4.33373e-06
4.48037e-06
4.63423e-06
4.79341e-06
4.95618e-06
5.12116e-06
5.28738e-06
5.45432e-06
5.62155e-06
5.78863e-06
5.95529e-06
6.12129e-06
6.28646e-06
6.45075e-06
6.6142e-06
6.77682e-06
6.93866e-06
7.09979e-06
7.26027e-06
7.42018e-06
7.57956e-06
7.7385e-06
7.89716e-06
8.05568e-06
8.2142e-06
8.37286e-06
8.53174e-06
8.691e-06
8.85077e-06
9.01121e-06
9.17242e-06
9.33454e-06
9.49765e-06
9.66191e-06
9.82743e-06
9.99435e-06
1.01628e-05
1.03327e-05
1.05044e-05
1.06778e-05
1.08531e-05
1.10303e-05
1.12097e-05
1.13913e-05
1.15753e-05
1.17617e-05
1.19505e-05
1.21419e-05
1.23359e-05
1.25327e-05
1.27324e-05
1.29352e-05
1.31411e-05
1.33502e-05
1.35624e-05
1.37778e-05
1.39966e-05
1.4219e-05
1.44451e-05
1.4675e-05
1.49086e-05
1.5146e-05
1.53872e-05
1.56326e-05
1.58822e-05
1.61363e-05
1.63948e-05
1.66578e-05
1.69255e-05
1.71979e-05
1.74751e-05
1.77575e-05
1.80451e-05
1.83384e-05
1.86377e-05
1.8943e-05
1.92548e-05
1.95735e-05
1.98995e-05
2.02336e-05
2.0576e-05
2.0931e-05
2.12892e-05
2.1684e-05
2.20342e-05
2.25434e-05
2.27981e-05
2.35441e-05
2.37694e-05
2.47778e-05
2.49258e-05
2.67151e-05
2.68143e-05
2.86701e-05
3.44322e-05
6.52794e-06
3.69915e-06
1.57459e-06
7.99561e-07
6.17297e-07
5.97561e-07
6.0852e-07
6.26962e-07
6.48598e-07
6.72222e-07
6.97931e-07
7.2543e-07
7.54242e-07
7.84157e-07
8.14526e-07
8.4476e-07
8.7453e-07
9.02937e-07
9.29315e-07
9.53333e-07
9.74603e-07
9.92521e-07
1.00656e-06
1.01654e-06
1.02252e-06
1.02455e-06
1.0216e-06
1.0146e-06
1.00334e-06
9.88061e-07
9.70059e-07
9.50003e-07
9.27496e-07
9.02429e-07
8.75081e-07
8.46025e-07
8.1567e-07
7.84124e-07
7.51568e-07
7.18454e-07
6.85181e-07
6.51931e-07
6.18815e-07
5.86085e-07
5.53982e-07
5.22718e-07
4.92387e-07
4.63057e-07
4.3505e-07
4.08222e-07
3.8252e-07
3.58184e-07
3.35359e-07
3.14148e-07
2.94614e-07
2.76846e-07
2.60859e-07
2.46771e-07
2.34454e-07
2.24204e-07
2.15504e-07
2.09067e-07
2.0417e-07
2.00179e-07
1.98702e-07
1.9897e-07
1.99957e-07
2.02008e-07
2.05015e-07
2.08851e-07
2.13395e-07
2.18549e-07
2.24223e-07
2.30354e-07
2.3688e-07
2.43772e-07
2.51023e-07
2.58603e-07
2.66488e-07
2.74678e-07
2.8315e-07
2.91929e-07
3.00978e-07
3.10242e-07
3.19835e-07
3.30078e-07
3.4074e-07
3.53107e-07
3.64759e-07
3.78738e-07
3.9837e-07
4.21623e-07
4.47185e-07
4.74163e-07
5.01923e-07
5.30073e-07
5.58363e-07
5.86625e-07
6.14765e-07
6.42731e-07
6.70487e-07
6.98015e-07
7.25309e-07
7.52377e-07
7.79224e-07
8.05849e-07
8.3225e-07
8.58442e-07
8.84452e-07
9.10319e-07
9.36075e-07
9.61742e-07
9.87334e-07
1.01287e-06
1.03837e-06
1.06387e-06
1.08941e-06
1.11501e-06
1.14071e-06
1.16653e-06
1.19248e-06
1.21859e-06
1.24486e-06
1.27134e-06
1.29806e-06
1.32504e-06
1.35231e-06
1.37989e-06
1.40781e-06
1.4361e-06
1.46477e-06
1.49384e-06
1.52334e-06
1.55329e-06
1.58372e-06
1.61468e-06
1.6462e-06
1.67829e-06
1.71095e-06
1.7442e-06
1.77808e-06
1.81262e-06
1.84788e-06
1.88386e-06
1.92059e-06
1.95807e-06
1.99633e-06
2.03541e-06
2.07537e-06
2.11627e-06
2.15812e-06
2.20097e-06
2.24484e-06
2.28978e-06
2.33584e-06
2.38308e-06
2.43159e-06
2.48149e-06
2.53289e-06
2.58593e-06
2.64075e-06
2.69755e-06
2.75655e-06
2.81806e-06
2.88258e-06
2.95004e-06
3.0233e-06
3.09677e-06
3.18916e-06
3.25809e-06
3.4057e-06
3.44154e-06
3.68775e-06
3.72556e-06
4.11175e-06
4.12781e-06
4.89294e-06
4.95585e-06
5.79276e-06
8.62122e-06
9.18057e-06
5.30063e-06
2.17098e-06
9.7497e-07
6.68644e-07
6.29272e-07
6.42913e-07
6.67047e-07
6.96985e-07
7.29464e-07
7.64058e-07
8.00755e-07
8.38928e-07
8.775e-07
9.16111e-07
9.53687e-07
9.89672e-07
1.02324e-06
1.05334e-06
1.07979e-06
1.10209e-06
1.11965e-06
1.13216e-06
1.13971e-06
1.14276e-06
1.14033e-06
1.1325e-06
1.12045e-06
1.10457e-06
1.08476e-06
1.06107e-06
1.03407e-06
1.00436e-06
9.72369e-07
9.38495e-07
9.03133e-07
8.66571e-07
8.29122e-07
7.91236e-07
7.53301e-07
7.1547e-07
6.77827e-07
6.40645e-07
6.04246e-07
5.68812e-07
5.34316e-07
5.00817e-07
4.68514e-07
4.37449e-07
4.07756e-07
3.79474e-07
3.52568e-07
3.27057e-07
3.0293e-07
2.80136e-07
2.58636e-07
2.38416e-07
2.19458e-07
2.01722e-07
1.85157e-07
1.69716e-07
1.55357e-07
1.42039e-07
1.29703e-07
1.18313e-07
1.07814e-07
9.81501e-08
8.92803e-08
8.11631e-08
7.37568e-08
6.70207e-08
6.0917e-08
5.54109e-08
5.04697e-08
4.60612e-08
4.21563e-08
3.87296e-08
3.57565e-08
3.32156e-08
3.10717e-08
2.93226e-08
2.78921e-08
2.68288e-08
2.5928e-08
2.5336e-08
2.51225e-08
2.50731e-08
2.51476e-08
2.541e-08
2.56452e-08
2.64061e-08
2.70527e-08
2.83809e-08
3.05953e-08
3.33322e-08
3.63753e-08
3.95985e-08
4.29271e-08
4.63173e-08
4.97412e-08
5.31798e-08
5.66202e-08
6.00545e-08
6.34772e-08
6.68844e-08
7.02707e-08
7.36313e-08
7.6964e-08
8.02701e-08
8.35529e-08
8.68156e-08
9.00587e-08
9.32817e-08
9.64846e-08
9.96688e-08
1.02839e-07
1.05999e-07
1.09154e-07
1.12308e-07
1.15462e-07
1.18616e-07
1.21772e-07
1.24933e-07
1.28105e-07
1.31294e-07
1.34504e-07
1.37735e-07
1.4099e-07
1.44271e-07
1.47584e-07
1.50931e-07
1.54317e-07
1.57746e-07
1.61219e-07
1.64742e-07
1.68318e-07
1.71954e-07
1.7565e-07
1.7941e-07
1.83236e-07
1.87132e-07
1.91105e-07
1.95159e-07
1.99298e-07
2.03522e-07
2.07833e-07
2.12237e-07
2.16742e-07
2.21356e-07
2.26086e-07
2.30936e-07
2.35911e-07
2.4102e-07
2.46266e-07
2.51665e-07
2.5723e-07
2.62972e-07
2.68917e-07
2.75086e-07
2.81511e-07
2.88227e-07
2.95277e-07
3.02715e-07
3.10615e-07
3.19101e-07
3.28147e-07
3.38473e-07
3.48694e-07
3.634e-07
3.72478e-07
3.99614e-07
4.03845e-07
4.5055e-07
4.57799e-07
5.38999e-07
5.47841e-07
7.17256e-07
7.59605e-07
9.68506e-07
1.84648e-06
1.17537e-05
6.9363e-06
2.78073e-06
1.15539e-06
7.3405e-07
6.80847e-07
7.01098e-07
7.36594e-07
7.80015e-07
8.26445e-07
8.75793e-07
9.27298e-07
9.80026e-07
1.03242e-06
1.08339e-06
1.13184e-06
1.17628e-06
1.21617e-06
1.25e-06
1.2777e-06
1.29885e-06
1.31324e-06
1.32065e-06
1.322e-06
1.31604e-06
1.30426e-06
1.28699e-06
1.26478e-06
1.23806e-06
1.20719e-06
1.1729e-06
1.136e-06
1.09694e-06
1.05592e-06
1.01337e-06
9.69903e-07
9.26053e-07
8.82082e-07
8.38167e-07
7.94558e-07
7.51561e-07
7.09461e-07
6.68439e-07
6.28571e-07
5.89899e-07
5.52546e-07
5.16672e-07
4.82347e-07
4.49549e-07
4.18239e-07
3.88453e-07
3.60244e-07
3.3359e-07
3.08424e-07
2.84702e-07
2.62417e-07
2.41548e-07
2.2203e-07
2.03794e-07
1.8679e-07
1.70979e-07
1.56305e-07
1.42701e-07
1.30107e-07
1.18472e-07
1.07747e-07
9.78768e-08
8.88011e-08
8.04679e-08
7.28308e-08
6.58435e-08
5.94587e-08
5.36311e-08
4.83193e-08
4.34848e-08
3.9091e-08
3.51032e-08
3.14894e-08
2.82186e-08
2.52618e-08
2.25916e-08
2.01836e-08
1.8016e-08
1.60685e-08
1.43206e-08
1.27548e-08
1.13543e-08
1.01033e-08
8.9904e-09
8.00002e-09
7.1262e-09
6.35414e-09
5.68226e-09
5.09933e-09
4.63917e-09
4.30714e-09
4.09885e-09
4.01123e-09
4.02911e-09
4.13617e-09
4.31512e-09
4.54746e-09
4.81881e-09
5.11826e-09
5.43765e-09
5.77079e-09
6.11293e-09
6.46073e-09
6.81214e-09
7.16603e-09
7.52158e-09
7.87792e-09
8.23421e-09
8.58975e-09
8.94415e-09
9.29754e-09
9.65023e-09
1.00025e-08
1.03544e-08
1.07061e-08
1.10572e-08
1.14077e-08
1.1758e-08
1.21086e-08
1.24604e-08
1.28137e-08
1.31685e-08
1.35247e-08
1.38825e-08
1.42426e-08
1.46055e-08
1.49718e-08
1.53419e-08
1.57162e-08
1.60948e-08
1.64782e-08
1.68671e-08
1.72618e-08
1.76629e-08
1.80706e-08
1.84856e-08
1.89085e-08
1.93396e-08
1.97792e-08
2.02275e-08
2.06848e-08
2.11521e-08
2.16303e-08
2.21205e-08
2.26236e-08
2.31397e-08
2.36696e-08
2.42147e-08
2.47757e-08
2.53548e-08
2.59538e-08
2.65743e-08
2.72203e-08
2.78948e-08
2.86024e-08
2.93493e-08
3.01422e-08
3.099e-08
3.19051e-08
3.29083e-08
3.39936e-08
3.52862e-08
3.65461e-08
3.85622e-08
3.96357e-08
4.36172e-08
4.43748e-08
5.10365e-08
5.29068e-08
6.52153e-08
6.91254e-08
9.63671e-08
1.10686e-07
1.52738e-07
3.73987e-07
1.42091e-05
8.49241e-06
3.35379e-06
1.32252e-06
8.1977e-07
7.66926e-07
8.03121e-07
8.58967e-07
9.2498e-07
9.94939e-07
1.06911e-06
1.1461e-06
1.22337e-06
1.29853e-06
1.36926e-06
1.43399e-06
1.48988e-06
1.53625e-06
1.57178e-06
1.59693e-06
1.61108e-06
1.61558e-06
1.61039e-06
1.5959e-06
1.57431e-06
1.54557e-06
1.51066e-06
1.4707e-06
1.4266e-06
1.37908e-06
1.32882e-06
1.27651e-06
1.22274e-06
1.16814e-06
1.11331e-06
1.05869e-06
1.00449e-06
9.50922e-07
8.9837e-07
8.47203e-07
7.97575e-07
7.49491e-07
7.03007e-07
6.58284e-07
6.15472e-07
5.74598e-07
5.35604e-07
4.98453e-07
4.6317e-07
4.29789e-07
3.98282e-07
3.68564e-07
3.40561e-07
3.14242e-07
2.89586e-07
2.66531e-07
2.44982e-07
2.24862e-07
2.06127e-07
1.88729e-07
1.72592e-07
1.57628e-07
1.43774e-07
1.3098e-07
1.19193e-07
1.0834e-07
9.83513e-08
8.91738e-08
8.07618e-08
7.30651e-08
6.60279e-08
5.95979e-08
5.37319e-08
4.83908e-08
4.35347e-08
3.91233e-08
3.51197e-08
3.1492e-08
2.821e-08
2.52437e-08
2.25648e-08
2.01483e-08
1.7972e-08
1.60153e-08
1.42578e-08
1.268e-08
1.1265e-08
9.99769e-09
8.86489e-09
7.85307e-09
6.94997e-09
6.14466e-09
5.42721e-09
4.78924e-09
4.22289e-09
3.72041e-09
3.27502e-09
2.88138e-09
2.53436e-09
2.2293e-09
1.96216e-09
1.72945e-09
1.52819e-09
1.35597e-09
1.21078e-09
1.09088e-09
9.9463e-10
9.20371e-10
8.66323e-10
8.30314e-10
8.10508e-10
8.02301e-10
8.06966e-10
8.1888e-10
8.37008e-10
8.5982e-10
8.86087e-10
9.14901e-10
9.45603e-10
9.77725e-10
1.01087e-09
1.04476e-09
1.07919e-09
1.11409e-09
1.14942e-09
1.18516e-09
1.22123e-09
1.2576e-09
1.29421e-09
1.3311e-09
1.36832e-09
1.40592e-09
1.44393e-09
1.48238e-09
1.52126e-09
1.56061e-09
1.60048e-09
1.64093e-09
1.68203e-09
1.72382e-09
1.76636e-09
1.8097e-09
1.85386e-09
1.89886e-09
1.94472e-09
1.99151e-09
2.03934e-09
2.08831e-09
2.13856e-09
2.19018e-09
2.24318e-09
2.29763e-09
2.35374e-09
2.41161e-09
2.4715e-09
2.53368e-09
2.59832e-09
2.66595e-09
2.73695e-09
2.81193e-09
2.89178e-09
2.97744e-09
3.07012e-09
3.17172e-09
3.28517e-09
3.40987e-09
3.56356e-09
3.71386e-09
3.97067e-09
4.10592e-09
4.63105e-09
4.79389e-09
5.65633e-09
6.13629e-09
7.76998e-09
9.06996e-09
1.30272e-08
1.71928e-08
2.65569e-08
7.51092e-08
1.663e-05
9.86643e-06
3.84169e-06
1.4752e-06
9.51457e-07
9.19569e-07
9.90578e-07
1.08346e-06
1.18971e-06
1.30456e-06
1.42695e-06
1.55337e-06
1.67801e-06
1.79679e-06
1.90371e-06
1.99314e-06
2.0626e-06
2.11069e-06
2.13544e-06
2.14358e-06
2.13387e-06
2.10794e-06
2.07037e-06
2.02271e-06
1.96686e-06
1.9045e-06
1.83714e-06
1.7661e-06
1.69245e-06
1.6171e-06
1.54101e-06
1.46504e-06
1.38981e-06
1.31572e-06
1.24307e-06
1.17225e-06
1.1036e-06
1.03738e-06
9.73715e-07
9.12587e-07
8.54002e-07
7.98048e-07
7.44824e-07
6.94321e-07
6.46417e-07
6.00998e-07
5.58034e-07
5.17531e-07
4.79433e-07
4.43613e-07
4.09942e-07
3.78346e-07
3.4878e-07
3.21174e-07
2.95413e-07
2.71378e-07
2.48988e-07
2.28186e-07
2.089e-07
1.91029e-07
1.74472e-07
1.59155e-07
1.45024e-07
1.32012e-07
1.20034e-07
1.09011e-07
9.88823e-08
8.96004e-08
8.1109e-08
7.33431e-08
6.62423e-08
5.976e-08
5.38564e-08
4.84886e-08
4.36103e-08
3.91786e-08
3.51582e-08
3.15182e-08
2.82276e-08
2.52546e-08
2.25703e-08
2.01497e-08
1.79708e-08
1.60122e-08
1.42529e-08
1.26738e-08
1.12578e-08
9.99043e-09
8.85761e-09
7.8458e-09
6.94254e-09
6.13712e-09
5.41969e-09
4.78195e-09
4.2157e-09
3.71306e-09
3.2671e-09
2.87214e-09
2.52277e-09
2.21405e-09
1.94156e-09
1.70129e-09
1.48956e-09
1.30314e-09
1.13924e-09
9.95372e-10
8.69246e-10
7.58792e-10
6.62171e-10
5.77768e-10
5.04187e-10
4.40208e-10
3.84795e-10
3.36965e-10
2.95855e-10
2.60697e-10
2.30838e-10
2.05744e-10
1.84976e-10
1.6813e-10
1.54802e-10
1.44577e-10
1.37038e-10
1.31779e-10
1.28425e-10
1.26434e-10
1.26219e-10
1.26738e-10
1.27979e-10
1.29796e-10
1.32055e-10
1.34663e-10
1.37554e-10
1.40676e-10
1.43981e-10
1.47439e-10
1.5103e-10
1.54747e-10
1.58582e-10
1.62528e-10
1.66583e-10
1.70742e-10
1.75006e-10
1.79374e-10
1.83842e-10
1.88418e-10
1.93108e-10
1.97922e-10
2.02873e-10
2.07973e-10
2.13223e-10
2.18625e-10
2.24203e-10
2.29971e-10
2.35955e-10
2.42191e-10
2.48699e-10
2.55544e-10
2.62777e-10
2.7047e-10
2.78754e-10
2.87768e-10
2.97687e-10
3.08858e-10
3.21661e-10
3.36453e-10
3.55132e-10
3.76019e-10
4.08947e-10
4.40177e-10
5.06043e-10
5.75947e-10
6.97575e-10
9.33089e-10
1.30157e-09
2.01962e-09
3.29707e-09
5.37967e-09
9.36347e-09
2.25879e-08
1.91822e-05
1.10092e-05
4.22186e-06
1.643e-06
1.19645e-06
1.20877e-06
1.35676e-06
1.52202e-06
1.71127e-06
1.92321e-06
2.15112e-06
2.39311e-06
2.62734e-06
2.84106e-06
3.01761e-06
3.14628e-06
3.21562e-06
3.24096e-06
3.21827e-06
3.15747e-06
3.07107e-06
2.96425e-06
2.84396e-06
2.71625e-06
2.58527e-06
2.45372e-06
2.32329e-06
2.1952e-06
2.0703e-06
1.94913e-06
1.83205e-06
1.71938e-06
1.61138e-06
1.50822e-06
1.41005e-06
1.31692e-06
1.22874e-06
1.1453e-06
1.06644e-06
9.92106e-07
9.22214e-07
8.56576e-07
7.9491e-07
7.36973e-07
6.82626e-07
6.31762e-07
5.84216e-07
5.39768e-07
4.98211e-07
4.594e-07
4.23221e-07
3.89542e-07
3.58206e-07
3.29057e-07
3.01965e-07
2.76826e-07
2.53537e-07
2.31983e-07
2.1204e-07
1.93601e-07
1.76579e-07
1.60896e-07
1.46464e-07
1.33186e-07
1.20975e-07
1.09765e-07
9.9496e-08
9.01034e-08
8.15131e-08
7.36575e-08
6.64844e-08
5.99503e-08
5.40091e-08
4.8609e-08
4.37005e-08
3.92434e-08
3.52047e-08
3.15523e-08
2.82521e-08
2.52706e-08
2.25794e-08
2.01538e-08
1.79717e-08
1.60107e-08
1.42492e-08
1.26686e-08
1.12516e-08
9.98381e-09
8.85096e-09
7.83875e-09
6.93546e-09
6.12995e-09
5.41247e-09
4.77521e-09
4.20954e-09
3.70707e-09
3.26132e-09
2.86658e-09
2.51743e-09
2.209e-09
1.93692e-09
1.69707e-09
1.48565e-09
1.29944e-09
1.13568e-09
9.91913e-10
8.65825e-10
7.55301e-10
6.58452e-10
5.73645e-10
4.99493e-10
4.34786e-10
3.7841e-10
3.29328e-10
2.86599e-10
2.49387e-10
2.16984e-10
1.888e-10
1.64335e-10
1.43135e-10
1.24781e-10
1.08892e-10
9.51347e-11
8.32316e-11
7.29605e-11
6.41329e-11
5.6581e-11
5.01403e-11
4.4654e-11
3.99844e-11
3.60209e-11
3.26784e-11
2.9887e-11
2.758e-11
2.56926e-11
2.41636e-11
2.29433e-11
2.19912e-11
2.12684e-11
2.07392e-11
2.03484e-11
2.01386e-11
2.0051e-11
2.00534e-11
2.01268e-11
2.02644e-11
2.04573e-11
2.0698e-11
2.09831e-11
2.13095e-11
2.16732e-11
2.20677e-11
2.24906e-11
2.29408e-11
2.34191e-11
2.39307e-11
2.44779e-11
2.50692e-11
2.57159e-11
2.64247e-11
2.72406e-11
2.81878e-11
2.93255e-11
3.07998e-11
3.27133e-11
3.54508e-11
3.92195e-11
4.55265e-11
5.65186e-11
7.76456e-11
1.12961e-10
1.83808e-10
2.93398e-10
5.17825e-10
8.64758e-10
1.50044e-09
2.63191e-09
4.32149e-09
7.47137e-09
1.31527e-08
2.23093e-05
1.18583e-05
4.48484e-06
1.94712e-06
1.66302e-06
1.81447e-06
2.1147e-06
2.44322e-06
2.83272e-06
3.27152e-06
3.7422e-06
4.24984e-06
4.72372e-06
5.14706e-06
5.44085e-06
5.60007e-06
5.66081e-06
5.55517e-06
5.37927e-06
5.1291e-06
4.84382e-06
4.53385e-06
4.21383e-06
3.89936e-06
3.60002e-06
3.32144e-06
3.06478e-06
2.8292e-06
2.61285e-06
2.41366e-06
2.22984e-06
2.06006e-06
1.90315e-06
1.75804e-06
1.62373e-06
1.49938e-06
1.38426e-06
1.27774e-06
1.17924e-06
1.08816e-06
1.00389e-06
9.25813e-07
8.5348e-07
7.86536e-07
7.24627e-07
6.67324e-07
6.14206e-07
5.64962e-07
5.19374e-07
4.77219e-07
4.38221e-07
4.02109e-07
3.68678e-07
3.37774e-07
3.09245e-07
2.82911e-07
2.58596e-07
2.36154e-07
2.1547e-07
1.96434e-07
1.78927e-07
1.62832e-07
1.4804e-07
1.34458e-07
1.22007e-07
1.10612e-07
1.0019e-07
9.06614e-08
8.19517e-08
7.40016e-08
6.67598e-08
6.01738e-08
5.4187e-08
4.87445e-08
4.38004e-08
3.93176e-08
3.52614e-08
3.15955e-08
2.82828e-08
2.52905e-08
2.25909e-08
2.016e-08
1.79743e-08
1.60105e-08
1.42466e-08
1.26638e-08
1.12456e-08
9.97731e-09
8.84415e-09
7.83162e-09
6.92797e-09
6.12221e-09
5.40503e-09
4.76833e-09
4.20308e-09
3.70074e-09
3.25516e-09
2.86069e-09
2.51187e-09
2.20385e-09
1.93224e-09
1.69278e-09
1.48166e-09
1.29569e-09
1.13221e-09
9.88754e-10
8.62967e-10
7.52682e-10
6.56e-10
5.71327e-10
4.97315e-10
4.32755e-10
3.76509e-10
3.27528e-10
2.84872e-10
2.47731e-10
2.15415e-10
1.87338e-10
1.6298e-10
1.41864e-10
1.23564e-10
1.07698e-10
9.39349e-11
8.20024e-11
7.16757e-11
6.27633e-11
5.50893e-11
4.84869e-11
4.27981e-11
3.78838e-11
3.36338e-11
2.99643e-11
2.68038e-11
2.40804e-11
2.17276e-11
1.96872e-11
1.79157e-11
1.63795e-11
1.50478e-11
1.38962e-11
1.29049e-11
1.20524e-11
1.1317e-11
1.06807e-11
1.0128e-11
9.6483e-12
9.22973e-12
8.86289e-12
8.54135e-12
8.25668e-12
8.00525e-12
7.78005e-12
7.57646e-12
7.38925e-12
7.21106e-12
7.04759e-12
6.90367e-12
6.77171e-12
6.65005e-12
6.62564e-12
6.66288e-12
6.80904e-12
7.14945e-12
7.85175e-12
9.19727e-12
1.16922e-11
1.6123e-11
2.39945e-11
3.73308e-11
6.10594e-11
9.98788e-11
1.70721e-10
2.84492e-10
4.91937e-10
8.35968e-10
1.40822e-09
2.43713e-09
3.97391e-09
6.6257e-09
1.09713e-08
2.58751e-05
1.24307e-05
4.70484e-06
2.61946e-06
2.59221e-06
3.08e-06
3.68092e-06
4.41401e-06
5.25972e-06
6.19382e-06
7.16165e-06
8.17957e-06
9.11189e-06
9.93018e-06
1.03569e-05
1.05592e-05
1.04913e-05
9.99591e-06
9.48347e-06
8.80449e-06
8.11429e-06
7.39461e-06
6.66854e-06
5.96923e-06
5.31952e-06
4.73906e-06
4.22861e-06
3.78448e-06
3.39912e-06
3.0639e-06
2.77043e-06
2.51154e-06
2.28141e-06
2.07561e-06
1.8908e-06
1.7243e-06
1.57387e-06
1.43765e-06
1.31402e-06
1.20165e-06
1.09938e-06
1.00619e-06
9.21186e-07
8.43553e-07
7.72535e-07
7.07468e-07
6.47818e-07
5.93151e-07
5.43039e-07
4.97036e-07
4.5474e-07
4.1585e-07
3.80134e-07
3.47347e-07
3.17222e-07
2.89512e-07
2.64037e-07
2.40649e-07
2.19199e-07
1.99522e-07
1.81461e-07
1.64894e-07
1.49718e-07
1.35834e-07
1.2314e-07
1.11537e-07
1.00932e-07
9.125e-08
8.24213e-08
7.43823e-08
6.70695e-08
6.04206e-08
5.4377e-08
4.88878e-08
4.39097e-08
3.94033e-08
3.53284e-08
3.16454e-08
2.83171e-08
2.53126e-08
2.26047e-08
2.01685e-08
1.79789e-08
1.60112e-08
1.42441e-08
1.2659e-08
1.12396e-08
9.97072e-09
8.83701e-09
7.82394e-09
6.92007e-09
6.11435e-09
5.39753e-09
4.76121e-09
4.19613e-09
3.69408e-09
3.24877e-09
2.85453e-09
2.50602e-09
2.19845e-09
1.92731e-09
1.68823e-09
1.47739e-09
1.2917e-09
1.12855e-09
9.85422e-10
8.59917e-10
7.49848e-10
6.53348e-10
5.68862e-10
4.95046e-10
4.30657e-10