/*--------------------------------*- C++ -*----------------------------------*\
| =========                 |                                                 |
| \\      /  F ield         | OpenFOAM: The Open Source CFD Toolbox           |
|  \\    /   O peration     | Version:  2.1.x                                 |
|   \\  /    A nd           | Web:      www.OpenFOAM.org                      |
|    \\/     M anipulation  |                                                 |
\*---------------------------------------------------------------------------*/
FoamFile
{
    version     2.0;
    format      ascii;
    class       volScalarField;
    location    "0.003";
    object      p;
}
// * * * * * * * * * * * * * * * * * * * * * * * * * * * * * * * * * * * * * //

dimensions      [0 2 -2 0 0 0 0];

internalField   nonuniform List<scalar> 
12225
(
-147.493
-165.127
-171.028
-171.068
-170.347
-169.142
-166.949
-165.854
-166.248
-165.072
-162.718
-161.917
-162.761
-163.404
-162.215
-160.285
-159.307
-159.553
-150.654
-165.497
-170.977
-171.028
-170.33
-169.174
-166.951
-165.82
-166.282
-165.2
-162.697
-161.854
-162.751
-163.594
-162.37
-160.258
-159.257
-159.418
-153.095
-165.524
-170.533
-170.779
-170.194
-169.104
-166.868
-165.759
-166.303
-165.238
-162.653
-161.798
-162.7
-163.627
-162.492
-160.322
-159.148
-159.166
-157.019
-165.85
-170.086
-170.587
-170.05
-168.902
-166.674
-165.709
-166.17
-165.089
-162.59
-161.78
-162.563
-163.419
-162.267
-160.375
-159.18
-159.087
-159.404
-166.521
-169.848
-170.319
-169.743
-168.632
-166.927
-165.713
-165.77
-164.67
-162.628
-161.994
-162.322
-161.962
-161.455
-160.259
-159.3
-158.928
-163.216
-167.606
-169.795
-170.174
-169.537
-168.28
-166.492
-165.561
-165.365
-164.184
-162.396
-161.807
-161.992
-161.433
-160.663
-159.906
-159.143
-158.324
-168.298
-169.166
-170.011
-169.972
-169.273
-168.065
-166.468
-165.386
-164.924
-163.781
-162.294
-161.758
-161.621
-160.822
-159.944
-159.451
-158.798
-158.057
-172.306
-170.705
-170.362
-169.87
-169.091
-167.879
-166.319
-165.197
-164.634
-163.494
-162.015
-161.471
-161.388
-160.508
-159.488
-159.094
-158.528
-157.579
-174.645
-171.947
-170.784
-169.846
-168.871
-167.676
-166.181
-165.034
-164.355
-163.171
-161.789
-161.29
-161.151
-160.199
-159.045
-158.586
-158.22
-157.471
-176.791
-173.316
-171.319
-169.811
-168.643
-167.501
-166.067
-164.861
-164.086
-162.908
-161.548
-160.907
-160.744
-159.963
-158.756
-158.092
-157.708
-157.074
-175.929
-174.563
-171.902
-169.856
-168.38
-167.131
-165.761
-164.577
-163.627
-162.539
-161.21
-160.589
-160.419
-159.548
-158.192
-157.475
-157.265
-156.661
-182.071
-176.474
-172.374
-169.792
-168.068
-166.766
-165.511
-164.323
-163.335
-162.179
-160.913
-160.129
-159.813
-159.228
-158.031
-156.982
-156.426
-155.886
-189.486
-178.505
-172.669
-169.671
-167.663
-166.199
-165.013
-163.934
-162.852
-161.687
-160.494
-159.711
-159.354
-158.702
-157.463
-156.343
-155.776
-155.56
-189.385
-176.982
-171.779
-168.804
-166.872
-165.479
-164.35
-163.363
-162.37
-161.237
-160.021
-159.14
-158.702
-158.138
-157.004
-155.803
-155.098
-154.497
-184.687
-174.154
-169.662
-167.412
-165.862
-164.569
-163.541
-162.736
-161.772
-160.51
-159.348
-158.612
-158.103
-157.342
-156.261
-155.149
-154.317
-153.863
-160.689
-164.957
-165.346
-165.091
-164.339
-163.391
-162.591
-161.915
-161.029
-159.886
-158.784
-157.977
-157.388
-156.688
-155.609
-154.399
-153.511
-152.782
-149.676
-158.535
-161.775
-162.733
-162.795
-162.232
-161.602
-161.092
-160.332
-159.192
-158.072
-157.332
-156.781
-155.967
-154.806
-153.637
-152.737
-152.078
-150.48
-157.681
-160.501
-161.593
-161.857
-161.452
-160.841
-160.327
-159.623
-158.55
-157.466
-156.718
-156.133
-155.306
-154.147
-152.951
-152.016
-151.255
-165.861
-163.315
-162.352
-161.877
-161.624
-161.125
-160.445
-159.874
-159.164
-158.082
-156.956
-156.179
-155.597
-154.774
-153.604
-152.398
-151.458
-150.711
-173.024
-165.888
-163.488
-162.359
-161.641
-160.907
-160.209
-159.648
-158.894
-157.758
-156.61
-155.842
-155.267
-154.428
-153.25
-152.047
-151.112
-150.377
-166.935
-165.222
-163.488
-162.468
-161.716
-160.968
-160.266
-159.639
-158.79
-157.607
-156.457
-155.694
-155.106
-154.241
-153.03
-151.802
-150.854
-150.105
-164.939
-164.144
-162.986
-162.203
-161.612
-160.978
-160.306
-159.625
-158.71
-157.503
-156.36
-155.609
-155.023
-154.148
-152.921
-151.674
-150.705
-149.922
-163.543
-163.437
-162.639
-162.114
-161.702
-161.161
-160.472
-159.69
-158.706
-157.494
-156.369
-155.599
-154.969
-154.062
-152.833
-151.599
-150.63
-149.819
-163.878
-162.86
-162.258
-162.064
-161.819
-161.322
-160.581
-159.715
-158.687
-157.503
-156.439
-155.678
-154.995
-154.037
-152.804
-151.592
-150.622
-149.783
-167.767
-162.391
-161.934
-162.135
-162.048
-161.552
-160.75
-159.822
-158.76
-157.586
-156.539
-155.742
-154.999
-154.024
-152.835
-151.668
-150.683
-149.788
-161.819
-160.711
-161.554
-162.332
-162.38
-161.791
-160.895
-159.91
-158.836
-157.706
-156.685
-155.84
-155.02
-154.036
-152.906
-151.788
-150.779
-149.813
-156.707
-158.906
-161.31
-162.621
-162.715
-162.035
-161.086
-160.073
-158.986
-157.864
-156.83
-155.926
-155.042
-154.075
-153.027
-151.965
-150.928
-149.889
-150.305
-157.348
-161.367
-163.051
-163.034
-162.229
-161.225
-160.184
-159.09
-157.975
-156.936
-155.988
-155.063
-154.104
-153.097
-152.058
-151
-149.937
-145.456
-156.268
-161.786
-163.613
-163.417
-162.46
-161.37
-160.285
-159.163
-158.024
-156.961
-155.983
-155.042
-154.096
-153.114
-152.087
-151.027
-149.972
-141.192
-155.175
-161.67
-163.666
-163.512
-162.547
-161.417
-160.295
-159.155
-158.015
-156.948
-155.963
-155.015
-154.058
-153.069
-152.033
-150.971
-149.899
-131.945
-131.911
-131.843
-131.737
-131.593
-131.411
-131.189
-130.928
-130.627
-130.286
-129.906
-129.487
-129.03
-128.537
-128.006
-127.443
-126.852
-126.234
-125.593
-124.932
-124.253
-123.561
-122.86
-122.153
-121.443
-120.733
-120.028
-119.33
-118.641
-117.964
-117.3
-116.652
-116.021
-115.406
-114.81
-114.232
-113.673
-113.131
-112.607
-112.101
-111.61
-111.136
-110.676
-110.23
-109.796
-109.374
-108.963
-108.561
-108.168
-107.783
-107.404
-107.031
-106.662
-106.298
-105.937
-105.579
-105.222
-104.867
-104.513
-104.158
-103.803
-103.447
-103.09
-102.732
-102.371
-102.008
-101.642
-101.274
-100.902
-100.528
-100.149
-99.7676
-99.3822
-98.9925
-98.5987
-98.2008
-97.7985
-97.3918
-96.9808
-96.5652
-96.1452
-95.7206
-95.2913
-94.8575
-94.4191
-93.976
-93.5282
-93.0757
-92.6184
-92.1565
-91.6898
-91.2184
-90.7422
-90.2613
-89.7756
-89.2853
-88.7902
-88.2905
-87.786
-87.2767
-86.7628
-86.2441
-85.7206
-85.1924
-84.6595
-84.1219
-83.5795
-83.0323
-82.4804
-81.9237
-81.3622
-80.7959
-80.2249
-79.649
-79.0682
-78.4826
-77.8921
-77.2967
-76.6964
-76.0912
-75.4811
-74.8659
-74.2457
-73.6205
-72.9903
-72.355
-71.7146
-71.069
-70.4183
-69.7624
-69.1012
-68.4348
-67.7632
-67.0862
-66.4039
-65.7163
-65.0232
-64.3247
-63.6206
-62.9111
-62.196
-61.4753
-60.7489
-60.0168
-59.2791
-58.5356
-57.7862
-57.0311
-56.27
-55.5029
-54.7299
-53.9508
-53.1656
-52.3743
-51.5768
-50.7729
-49.9628
-49.1461
-48.323
-47.4932
-46.6567
-45.8133
-44.963
-44.1056
-43.2407
-42.3681
-41.4875
-40.5983
-39.7003
-38.792
-37.8742
-36.9416
-36.0018
-35.0327
-34.0687
-33.0417
-32.0396
-30.9284
-29.8244
-28.6122
-132.109
-132.076
-132.007
-131.9
-131.755
-131.57
-131.346
-131.082
-130.778
-130.432
-130.047
-129.622
-129.16
-128.661
-128.115
-127.547
-126.949
-126.323
-125.674
-125.004
-124.318
-123.619
-122.91
-122.195
-121.479
-120.764
-120.053
-119.35
-118.657
-117.976
-117.31
-116.66
-116.026
-115.41
-114.813
-114.235
-113.675
-113.133
-112.61
-112.104
-111.614
-111.14
-110.681
-110.235
-109.803
-109.382
-108.971
-108.57
-108.178
-107.793
-107.415
-107.042
-106.675
-106.311
-105.95
-105.592
-105.236
-104.881
-104.526
-104.172
-103.817
-103.461
-103.104
-102.745
-102.384
-102.021
-101.655
-101.287
-100.915
-100.54
-100.161
-99.7786
-99.3921
-99.0019
-98.6076
-98.2093
-97.8067
-97.3997
-96.9883
-96.5725
-96.1521
-95.7272
-95.2976
-94.8633
-94.4251
-93.9819
-93.5339
-93.0811
-92.6236
-92.1614
-91.6945
-91.2229
-90.7466
-90.2655
-89.7797
-89.2892
-88.794
-88.294
-87.7894
-87.28
-86.7659
-86.2471
-85.7235
-85.1952
-84.6622
-84.1244
-83.582
-83.0347
-82.4827
-81.9259
-81.3643
-80.798
-80.2268
-79.6508
-79.07
-78.4843
-77.8937
-77.2983
-76.6979
-76.0927
-75.4825
-74.8672
-74.247
-73.6217
-72.9914
-72.3561
-71.7156
-71.07
-70.4193
-69.7633
-69.1021
-68.4357
-67.764
-67.087
-66.4046
-65.717
-65.0239
-64.3253
-63.6212
-62.9116
-62.1965
-61.4757
-60.7493
-60.0173
-59.2795
-58.5359
-57.7865
-57.0313
-56.2702
-55.5031
-54.73
-53.9509
-53.1657
-52.3743
-51.5767
-50.7729
-49.9627
-49.146
-48.3228
-47.493
-46.6564
-45.8131
-44.9628
-44.1053
-43.2405
-42.3679
-41.4874
-40.5983
-39.7004
-38.7923
-37.875
-36.9427
-36.0034
-35.0366
-34.0706
-33.0537
-32.0419
-30.9614
-29.8488
-28.6968
-132.441
-132.408
-132.338
-132.23
-132.081
-131.893
-131.663
-131.393
-131.082
-130.727
-130.33
-129.893
-129.417
-128.902
-128.351
-127.767
-127.152
-126.51
-125.844
-125.158
-124.456
-123.742
-123.019
-122.291
-121.563
-120.837
-120.116
-119.404
-118.704
-118.016
-117.345
-116.69
-116.053
-115.435
-114.836
-114.256
-113.695
-113.154
-112.63
-112.125
-111.636
-111.163
-110.704
-110.26
-109.828
-109.408
-108.998
-108.598
-108.206
-107.821
-107.443
-107.071
-106.703
-106.339
-105.979
-105.62
-105.264
-104.908
-104.553
-104.198
-103.843
-103.486
-103.128
-102.769
-102.407
-102.043
-101.677
-101.307
-100.935
-100.559
-100.179
-99.7961
-99.4091
-99.0182
-98.6234
-98.2245
-97.8213
-97.4137
-97.0017
-96.5854
-96.1645
-95.7391
-95.3092
-94.8748
-94.4352
-93.9913
-93.5427
-93.0894
-92.6315
-92.169
-91.7017
-91.2298
-90.7531
-90.2717
-89.7856
-89.2949
-88.7994
-88.2992
-87.7943
-87.2847
-86.7704
-86.2513
-85.7276
-85.1991
-84.6659
-84.128
-83.5854
-83.038
-82.4858
-81.9289
-81.3672
-80.8007
-80.2295
-79.6534
-79.0724
-78.4866
-77.8959
-77.3004
-76.7
-76.0947
-75.4843
-74.869
-74.2487
-73.6234
-72.993
-72.3576
-71.7171
-71.0715
-70.4206
-69.7646
-69.1034
-68.4369
-67.7651
-67.0881
-66.4058
-65.718
-65.0249
-64.3263
-63.6222
-62.9125
-62.1974
-61.4766
-60.7502
-60.018
-59.2802
-58.5366
-57.7872
-57.032
-56.2708
-55.5037
-54.7306
-53.9514
-53.1662
-52.3748
-51.5772
-50.7733
-49.9631
-49.1465
-48.3233
-47.4935
-46.657
-45.8136
-44.9634
-44.106
-43.2412
-42.3689
-41.4885
-40.5997
-39.7021
-38.7947
-37.8778
-36.9472
-36.0079
-35.0459
-34.0783
-33.0753
-32.0597
-31.0175
-29.9174
-28.8564
-132.949
-132.915
-132.844
-132.733
-132.58
-132.385
-132.148
-131.868
-131.547
-131.177
-130.764
-130.31
-129.815
-129.28
-128.709
-128.103
-127.466
-126.798
-126.105
-125.394
-124.669
-123.933
-123.189
-122.441
-121.694
-120.95
-120.215
-119.489
-118.777
-118.08
-117.399
-116.737
-116.095
-115.473
-114.871
-114.289
-113.727
-113.185
-112.661
-112.155
-111.667
-111.194
-110.737
-110.293
-109.862
-109.442
-109.033
-108.633
-108.242
-107.858
-107.48
-107.107
-106.74
-106.375
-106.014
-105.656
-105.298
-104.942
-104.587
-104.231
-103.875
-103.517
-103.158
-102.798
-102.435
-102.071
-101.703
-101.333
-100.959
-100.582
-100.202
-99.8178
-99.4299
-99.0382
-98.6425
-98.2427
-97.8386
-97.4302
-97.0175
-96.6004
-96.1788
-95.7526
-95.322
-94.8867
-94.4468
-94.0023
-93.5531
-93.0993
-92.6409
-92.1779
-91.7102
-91.2378
-90.7607
-90.279
-89.7925
-89.3014
-88.8055
-88.305
-87.7998
-87.2899
-86.7753
-86.2561
-85.7321
-85.2034
-84.67
-84.1319
-83.5891
-83.0415
-82.4891
-81.932
-81.3702
-80.8036
-80.2322
-79.6559
-79.0748
-78.4889
-77.8981
-77.3025
-76.702
-76.0966
-75.4861
-74.8707
-74.2503
-73.6249
-72.9945
-72.359
-71.7184
-71.0727
-70.4218
-69.7657
-69.1044
-68.4379
-67.7661
-67.089
-66.4066
-65.7188
-65.0256
-64.327
-63.6229
-62.9132
-62.198
-61.4772
-60.7507
-60.0186
-59.2807
-58.5371
-57.7877
-57.0324
-56.2713
-55.5041
-54.731
-53.9518
-53.1665
-52.3751
-51.5775
-50.7736
-49.9634
-49.1467
-48.3236
-47.4938
-46.6574
-45.8141
-44.9639
-44.1067
-43.2421
-42.3699
-41.4898
-40.6014
-39.7043
-38.7977
-37.8814
-36.953
-36.0139
-35.0581
-34.0891
-33.1014
-32.0889
-31.0737
-30.008
-28.9944
-133.645
-133.611
-133.538
-133.422
-133.263
-133.06
-132.81
-132.515
-132.171
-131.791
-131.361
-130.885
-130.366
-129.804
-129.204
-128.568
-127.901
-127.207
-126.459
-125.721
-124.965
-124.198
-123.424
-122.649
-121.875
-121.108
-120.351
-119.607
-118.878
-118.167
-117.475
-116.804
-116.154
-115.525
-114.919
-114.334
-113.77
-113.226
-112.702
-112.196
-111.708
-111.236
-110.779
-110.335
-109.905
-109.486
-109.077
-108.678
-108.287
-107.903
-107.525
-107.152
-106.784
-106.42
-106.058
-105.699
-105.341
-104.984
-104.627
-104.27
-103.913
-103.555
-103.195
-102.833
-102.47
-102.103
-101.735
-101.363
-100.988
-100.61
-100.229
-99.8436
-99.4547
-99.0619
-98.6651
-98.2642
-97.8591
-97.4497
-97.0361
-96.618
-96.1956
-95.7686
-95.3371
-94.9011
-94.4605
-94.0153
-93.5655
-93.1111
-92.6521
-92.1884
-91.7202
-91.2473
-90.7697
-90.2875
-89.8006
-89.309
-88.8127
-88.3118
-87.8062
-87.296
-86.7811
-86.2615
-85.7372
-85.2083
-84.6746
-84.1363
-83.5932
-83.0454
-82.4928
-81.9355
-81.3735
-80.8067
-80.2352
-79.6588
-79.0775
-78.4915
-77.9006
-77.3048
-76.7042
-76.0986
-75.4881
-74.8726
-74.2521
-73.6266
-72.9961
-72.3605
-71.7198
-71.074
-70.4231
-69.7669
-69.1056
-68.439
-67.7672
-67.09
-66.4076
-65.7197
-65.0265
-64.3278
-63.6236
-62.9139
-62.1987
-61.4779
-60.7514
-60.0192
-59.2813
-58.5376
-57.7882
-57.0329
-56.2717
-55.5045
-54.7314
-53.9521
-53.1668
-52.3754
-51.5777
-50.7739
-49.9637
-49.1471
-48.3239
-47.4942
-46.6578
-45.8147
-44.9646
-44.1075
-43.2431
-42.3711
-41.4914
-40.6035
-39.707
-38.8013
-37.8858
-36.9598
-36.0215
-35.0714
-34.1039
-33.1288
-32.1243
-31.1297
-30.0965
-29.106
-134.546
-134.511
-134.436
-134.316
-134.15
-133.937
-133.676
-133.366
-133.009
-132.605
-132.148
-131.642
-131.09
-130.493
-129.854
-129.176
-128.464
-127.721
-126.951
-126.162
-125.36
-124.55
-123.736
-122.922
-122.114
-121.315
-120.53
-119.761
-119.01
-118.281
-117.574
-116.89
-116.23
-115.594
-114.981
-114.392
-113.825
-113.28
-112.754
-112.248
-111.76
-111.288
-110.831
-110.388
-109.958
-109.54
-109.131
-108.732
-108.341
-107.957
-107.579
-107.206
-106.837
-106.472
-106.11
-105.749
-105.39
-105.032
-104.674
-104.316
-103.958
-103.598
-103.237
-102.874
-102.509
-102.141
-101.771
-101.398
-101.022
-100.642
-100.26
-99.8731
-99.4829
-99.0888
-98.6908
-98.2887
-97.8824
-97.472
-97.0572
-96.6382
-96.2147
-95.7867
-95.3543
-94.9174
-94.476
-94.03
-93.5795
-93.1243
-92.6646
-92.2003
-91.7314
-91.2579
-90.7798
-90.297
-89.8096
-89.3175
-88.8207
-88.3193
-87.8133
-87.3027
-86.7875
-86.2675
-85.743
-85.2137
-84.6798
-84.1411
-83.5978
-83.0497
-82.4969
-81.9394
-81.3772
-80.8102
-80.2384
-79.6618
-79.0804
-78.4942
-77.9032
-77.3073
-76.7065
-76.1008
-75.4901
-74.8745
-74.254
-73.6284
-72.9978
-72.3621
-71.7213
-71.0754
-70.4244
-69.7682
-69.1068
-68.4402
-67.7683
-67.0911
-66.4085
-65.7206
-65.0273
-64.3286
-63.6244
-62.9147
-62.1994
-61.4785
-60.752
-60.0198
-59.2818
-58.5381
-57.7887
-57.0334
-56.2722
-55.505
-54.7318
-53.9525
-53.1671
-52.3757
-51.5781
-50.7742
-49.964
-49.1474
-48.3244
-47.4947
-46.6584
-45.8153
-44.9654
-44.1084
-43.2442
-42.3726
-41.4933
-40.6059
-39.7101
-38.8054
-37.8913
-36.9671
-36.0313
-35.0853
-34.1231
-33.1561
-32.1646
-31.184
-30.1788
-29.2098
-135.678
-135.642
-135.564
-135.44
-135.267
-135.045
-134.771
-134.444
-134.063
-133.628
-133.149
-132.612
-132.021
-131.38
-130.693
-129.963
-129.196
-128.397
-127.572
-126.727
-125.868
-125.002
-124.135
-123.272
-122.419
-121.579
-120.757
-119.955
-119.177
-118.425
-117.698
-116.999
-116.326
-115.68
-115.06
-114.466
-113.895
-113.347
-112.82
-112.312
-111.824
-111.352
-110.895
-110.452
-110.023
-109.604
-109.196
-108.796
-108.405
-108.02
-107.642
-107.268
-106.899
-106.533
-106.169
-105.807
-105.447
-105.088
-104.728
-104.369
-104.009
-103.647
-103.284
-102.92
-102.553
-102.184
-101.812
-101.437
-101.06
-100.679
-100.294
-99.9062
-99.5145
-99.1189
-98.7195
-98.3161
-97.9085
-97.4968
-97.0809
-96.6606
-96.236
-95.8069
-95.3735
-94.9356
-94.4933
-94.0464
-93.595
-93.139
-92.6785
-92.2134
-91.7438
-91.2696
-90.7909
-90.3075
-89.8195
-89.3268
-88.8296
-88.3277
-87.8212
-87.3102
-86.7945
-86.2742
-85.7492
-85.2196
-84.6853
-84.1463
-83.6027
-83.0544
-82.5014
-81.9436
-81.3811
-80.8139
-80.2419
-79.6651
-79.0836
-78.4972
-77.906
-77.3099
-76.7089
-76.1031
-75.4923
-74.8766
-74.256
-73.6303
-72.9995
-72.3637
-71.7229
-71.0769
-70.4258
-69.7695
-69.108
-68.4414
-67.7694
-67.0921
-66.4095
-65.7215
-65.0282
-64.3294
-63.6252
-62.9154
-62.2001
-61.4792
-60.7526
-60.0204
-59.2824
-58.5386
-57.7892
-57.0338
-56.2726
-55.5054
-54.7322
-53.9529
-53.1675
-52.376
-51.5784
-50.7746
-49.9644
-49.1479
-48.3248
-47.4952
-46.659
-45.816
-44.9662
-44.1095
-43.2456
-42.3743
-41.4954
-40.6087
-39.7137
-38.8101
-37.8974
-36.9754
-36.0422
-35.1005
-34.1439
-33.1844
-32.2061
-31.2358
-30.2573
-29.3029
-137.074
-137.036
-136.957
-136.829
-136.652
-136.423
-136.138
-135.797
-135.397
-134.939
-134.425
-133.848
-133.211
-132.518
-131.771
-130.977
-130.14
-129.269
-128.37
-127.45
-126.518
-125.579
-124.643
-123.716
-122.803
-121.91
-121.04
-120.198
-119.385
-118.603
-117.852
-117.133
-116.445
-115.788
-115.159
-114.557
-113.981
-113.43
-112.9
-112.392
-111.902
-111.429
-110.972
-110.529
-110.099
-109.68
-109.271
-108.872
-108.48
-108.094
-107.715
-107.34
-106.969
-106.602
-106.237
-105.873
-105.511
-105.15
-104.789
-104.428
-104.066
-103.702
-103.337
-102.971
-102.602
-102.231
-101.857
-101.481
-101.101
-100.719
-100.333
-99.9428
-99.5494
-99.1523
-98.7513
-98.3464
-97.9373
-97.5242
-97.1069
-96.6853
-96.2595
-95.8292
-95.3946
-94.9556
-94.5122
-94.0644
-93.612
-93.1551
-92.6938
-92.2279
-91.7575
-91.2825
-90.803
-90.3189
-89.8303
-89.337
-88.8392
-88.3368
-87.8298
-87.3183
-86.8022
-86.2814
-85.756
-85.226
-84.6913
-84.152
-83.608
-83.0594
-82.5061
-81.9481
-81.3853
-80.8178
-80.2456
-79.6686
-79.0869
-78.5003
-77.9089
-77.3126
-76.7115
-76.1055
-75.4946
-74.8788
-74.2581
-73.6323
-73.0014
-72.3655
-71.7245
-71.0784
-70.4272
-69.7708
-69.1093
-68.4426
-67.7706
-67.0932
-66.4105
-65.7225
-65.0291
-64.3302
-63.626
-62.9162
-62.2009
-61.4799
-60.7533
-60.021
-59.2829
-58.5392
-57.7897
-57.0343
-56.2731
-55.5058
-54.7326
-53.9533
-53.1679
-52.3764
-51.5788
-50.7749
-49.9648
-49.1483
-48.3253
-47.4958
-46.6597
-45.8168
-44.9672
-44.1107
-43.247
-42.3762
-41.4978
-40.6117
-39.7176
-38.8153
-37.9042
-36.9843
-36.0542
-35.1165
-34.166
-33.2135
-32.2467
-31.2876
-30.3284
-29.3856
-138.786
-138.746
-138.667
-138.54
-138.364
-138.133
-137.845
-137.495
-137.078
-136.593
-136.037
-135.43
-134.744
-133.988
-133.168
-132.292
-131.367
-130.401
-129.404
-128.385
-127.353
-126.318
-125.29
-124.277
-123.286
-122.323
-121.393
-120.498
-119.641
-118.822
-118.042
-117.299
-116.592
-115.92
-115.28
-114.67
-114.088
-113.532
-112.999
-112.488
-111.996
-111.522
-111.064
-110.62
-110.189
-109.77
-109.36
-108.959
-108.566
-108.179
-107.798
-107.421
-107.049
-106.679
-106.312
-105.947
-105.583
-105.22
-104.856
-104.493
-104.129
-103.763
-103.396
-103.027
-102.657
-102.283
-101.907
-101.529
-101.147
-100.763
-100.374
-99.9828
-99.5876
-99.1888
-98.7861
-98.3794
-97.9687
-97.554
-97.1353
-96.7123
-96.285
-95.8534
-95.4176
-94.9774
-94.5328
-94.0839
-93.6305
-93.1726
-92.7103
-92.2435
-91.7722
-91.2964
-90.8161
-90.3312
-89.8419
-89.3481
-88.8496
-88.3467
-87.8391
-87.327
-86.8104
-86.2891
-85.7633
-85.2328
-84.6977
-84.158
-83.6137
-83.0648
-82.5112
-81.9528
-81.3898
-80.822
-80.2496
-79.6724
-79.0904
-78.5036
-77.912
-77.3155
-76.7142
-76.1081
-75.4971
-74.8811
-74.2602
-73.6343
-73.0033
-72.3673
-71.7262
-71.08
-70.4287
-69.7723
-69.1107
-68.4438
-67.7717
-67.0943
-66.4116
-65.7235
-65.03
-64.3311
-63.6268
-62.917
-62.2016
-61.4806
-60.7539
-60.0216
-59.2835
-58.5397
-57.7902
-57.0348
-56.2735
-55.5063
-54.733
-53.9537
-53.1683
-52.3768
-51.5792
-50.7754
-49.9653
-49.1488
-48.3259
-47.4964
-46.6604
-45.8177
-44.9683
-44.112
-43.2487
-42.3782
-41.5004
-40.615
-39.7219
-38.8208
-37.9115
-36.9938
-36.067
-35.1331
-34.1888
-33.2425
-32.2866
-31.337
-30.392
-29.4613
-140.861
-140.82
-140.75
-140.636
-140.476
-140.262
-139.989
-139.648
-139.233
-138.739
-138.16
-137.503
-136.761
-135.932
-135.021
-134.039
-132.996
-131.901
-130.77
-129.612
-128.443
-127.275
-126.12
-124.99
-123.894
-122.839
-121.828
-120.866
-119.953
-119.089
-118.272
-117.5
-116.771
-116.081
-115.428
-114.808
-114.218
-113.656
-113.119
-112.605
-112.11
-111.634
-111.174
-110.728
-110.295
-109.873
-109.462
-109.059
-108.664
-108.275
-107.892
-107.513
-107.138
-106.766
-106.397
-106.029
-105.663
-105.297
-104.931
-104.565
-104.198
-103.83
-103.46
-103.089
-102.716
-102.34
-101.962
-101.581
-101.197
-100.81
-100.42
-100.026
-99.6291
-99.2282
-98.8236
-98.4151
-98.0026
-97.5863
-97.1659
-96.7414
-96.3126
-95.8796
-95.4423
-95.0008
-94.555
-94.1049
-93.6503
-93.1914
-92.7281
-92.2603
-91.788
-91.3113
-90.8301
-90.3445
-89.8545
-89.3599
-88.8608
-88.3572
-87.849
-87.3364
-86.8191
-86.2974
-85.771
-85.2401
-84.7045
-84.1645
-83.6198
-83.0705
-82.5165
-81.9579
-81.3945
-80.8265
-80.2537
-79.6763
-79.0941
-78.5071
-77.9152
-77.3186
-76.7171
-76.1108
-75.4996
-74.8835
-74.2625
-73.6364
-73.0053
-72.3691
-71.7279
-71.0816
-70.4302
-69.7737
-69.112
-68.4451
-67.7729
-67.0954
-66.4126
-65.7245
-65.0309
-64.332
-63.6277
-62.9178
-62.2024
-61.4813
-60.7546
-60.0222
-59.2841
-58.5403
-57.7907
-57.0353
-56.274
-55.5067
-54.7334
-53.9541
-53.1687
-52.3773
-51.5796
-50.7758
-49.9657
-49.1493
-48.3264
-47.4971
-46.6612
-45.8186
-44.9694
-44.1133
-43.2504
-42.3803
-41.5031
-40.6185
-39.7265
-38.8267
-37.9191
-37.0037
-36.0801
-35.1501
-34.2115
-33.2713
-32.3247
-31.3835
-30.4502
-29.5288
-143.415
-143.38
-143.323
-143.24
-143.122
-142.957
-142.734
-142.442
-142.065
-141.592
-141.009
-140.304
-139.523
-138.604
-137.568
-136.44
-135.228
-133.947
-132.621
-131.261
-129.892
-128.53
-127.195
-125.901
-124.66
-123.48
-122.365
-121.316
-120.332
-119.412
-118.551
-117.744
-116.988
-116.278
-115.609
-114.976
-114.377
-113.807
-113.264
-112.744
-112.246
-111.766
-111.302
-110.853
-110.418
-109.993
-109.579
-109.173
-108.775
-108.383
-107.997
-107.615
-107.237
-106.863
-106.49
-106.12
-105.75
-105.381
-105.012
-104.643
-104.273
-103.902
-103.53
-103.156
-102.78
-102.402
-102.021
-101.637
-101.251
-100.861
-100.469
-100.073
-99.6736
-99.2706
-98.8638
-98.4533
-98.039
-97.6209
-97.1987
-96.7724
-96.3421
-95.9075
-95.4688
-95.0259
-94.5787
-94.1273
-93.6715
-93.2114
-92.747
-92.2781
-91.8048
-91.3271
-90.8451
-90.3586
-89.8678
-89.3725
-88.8726
-88.3683
-87.8595
-87.3462
-86.8284
-86.3061
-85.7792
-85.2478
-84.7118
-84.1713
-83.6262
-83.0765
-82.5222
-81.9631
-81.3995
-80.8311
-80.2581
-79.6804
-79.0979
-78.5107
-77.9186
-77.3217
-76.7201
-76.1136
-75.5022
-74.886
-74.2648
-73.6386
-73.0073
-72.371
-71.7297
-71.0833
-70.4318
-69.7752
-69.1134
-68.4464
-67.7742
-67.0966
-66.4137
-65.7255
-65.0319
-64.3329
-63.6285
-62.9186
-62.2031
-61.482
-60.7552
-60.0228
-59.2847
-58.5408
-57.7912
-57.0358
-56.2744
-55.5071
-54.7338
-53.9545
-53.1692
-52.3777
-51.5801
-50.7763
-49.9662
-49.1498
-48.327
-47.4977
-46.662
-45.8196
-44.9706
-44.1148
-43.2522
-42.3826
-41.506
-40.6222
-39.7312
-38.8328
-37.9271
-37.0139
-36.0935
-35.1672
-34.234
-33.2994
-32.3607
-31.4273
-30.5028
-29.5889
-146.488
-146.465
-146.472
-146.466
-146.449
-146.409
-146.32
-146.163
-145.919
-145.545
-145.035
-144.357
-143.51
-142.467
-141.246
-139.9
-138.423
-136.847
-135.215
-133.536
-131.859
-130.204
-128.602
-127.072
-125.629
-124.279
-123.025
-121.863
-120.791
-119.801
-118.886
-118.039
-117.251
-116.516
-115.827
-115.18
-114.569
-113.989
-113.438
-112.911
-112.406
-111.921
-111.452
-110.999
-110.558
-110.13
-109.711
-109.302
-108.9
-108.504
-108.114
-107.729
-107.347
-106.969
-106.593
-106.218
-105.845
-105.473
-105.101
-104.728
-104.355
-103.981
-103.605
-103.228
-102.849
-102.468
-102.084
-101.697
-101.308
-100.916
-100.521
-100.123
-99.7209
-99.3156
-98.9067
-98.4941
-98.0778
-97.6576
-97.2335
-96.8055
-96.3734
-95.9372
-95.4969
-95.0525
-94.6038
-94.151
-93.6939
-93.2326
-92.767
-92.297
-91.8227
-91.344
-90.8609
-90.3736
-89.8819
-89.3857
-88.8851
-88.38
-87.8705
-87.3566
-86.8382
-86.3152
-85.7878
-85.2559
-84.7195
-84.1785
-83.633
-83.0828
-82.5281
-81.9687
-81.4047
-80.836
-80.2627
-79.6847
-79.1019
-78.5144
-77.9221
-77.3251
-76.7232
-76.1165
-75.505
-74.8885
-74.2671
-73.6407
-73.0094
-72.373
-71.7315
-71.0851
-70.4335
-69.7768
-69.1149
-68.4477
-67.7754
-67.0978
-66.4148
-65.7266
-65.0329
-64.3339
-63.6294
-62.9194
-62.2038
-61.4827
-60.7559
-60.0234
-59.2853
-58.5414
-57.7917
-57.0362
-56.2749
-55.5075
-54.7343
-53.955
-53.1697
-52.3782
-51.5806
-50.7768
-49.9667
-49.1503
-48.3276
-47.4984
-46.6628
-45.8206
-44.9718
-44.1163
-43.254
-42.3849
-41.509
-40.626
-39.7361
-38.839
-37.9351
-37.0242
-36.1069
-35.1841
-34.2558
-33.3264
-32.3945
-31.4679
-30.5502
-29.6428
-150.102
-150.145
-150.247
-150.402
-150.599
-150.816
-151.049
-151.233
-151.328
-151.295
-151.028
-150.51
-149.681
-148.478
-146.946
-145.208
-143.232
-141.117
-138.949
-136.734
-134.563
-132.456
-130.454
-128.58
-126.852
-125.271
-123.832
-122.528
-121.345
-120.271
-119.292
-118.395
-117.569
-116.804
-116.093
-115.426
-114.8
-114.207
-113.644
-113.108
-112.594
-112.101
-111.625
-111.165
-110.719
-110.284
-109.861
-109.446
-109.038
-108.638
-108.243
-107.853
-107.467
-107.084
-106.704
-106.325
-105.948
-105.572
-105.196
-104.819
-104.442
-104.064
-103.685
-103.305
-102.922
-102.538
-102.151
-101.761
-101.369
-100.974
-100.577
-100.175
-99.7711
-99.3634
-98.9521
-98.5372
-98.1187
-97.6964
-97.2703
-96.8403
-96.4064
-95.9685
-95.5266
-95.0805
-94.6303
-94.176
-93.7176
-93.2549
-92.7881
-92.3169
-91.8414
-91.3617
-90.8777
-90.3893
-89.8966
-89.3995
-88.8981
-88.3923
-87.8821
-87.3674
-86.8484
-86.3248
-85.7969
-85.2644
-84.7275
-84.186
-83.64
-83.0894
-82.5342
-81.9744
-81.4101
-80.8411
-80.2675
-79.6891
-79.1061
-78.5183
-77.9258
-77.3285
-76.7264
-76.1195
-75.5077
-74.8911
-74.2695
-73.643
-73.0115
-72.375
-71.7335
-71.0869
-70.4351
-69.7783
-69.1163
-68.4491
-67.7767
-67.099
-66.416
-65.7276
-65.0339
-64.3348
-63.6302
-62.9202
-62.2046
-61.4834
-60.7565
-60.024
-59.2859
-58.5419
-57.7922
-57.0367
-56.2753
-55.508
-54.7347
-53.9555
-53.1701
-52.3787
-51.5811
-50.7773
-49.9672
-49.1509
-48.3282
-47.4991
-46.6636
-45.8216
-44.973
-44.1178
-43.2559
-42.3873
-41.512
-40.6299
-39.741
-38.8453
-37.9432
-37.0345
-36.12
-35.2006
-34.2767
-33.3521
-32.4261
-31.5054
-30.5931
-29.6907
-154.505
-154.59
-154.855
-155.296
-155.901
-156.65
-157.504
-158.471
-159.406
-160.2
-160.686
-160.644
-159.98
-158.505
-156.351
-153.76
-150.75
-147.598
-144.438
-141.313
-138.325
-135.501
-132.881
-130.497
-128.364
-126.468
-124.792
-123.311
-121.997
-120.826
-119.773
-118.82
-117.951
-117.152
-116.412
-115.722
-115.076
-114.466
-113.888
-113.339
-112.813
-112.309
-111.824
-111.355
-110.9
-110.458
-110.027
-109.605
-109.192
-108.785
-108.385
-107.989
-107.598
-107.209
-106.824
-106.441
-106.059
-105.678
-105.297
-104.916
-104.535
-104.154
-103.771
-103.386
-103
-102.612
-102.222
-101.829
-101.434
-101.036
-100.635
-100.231
-99.824
-99.4136
-98.9998
-98.5825
-98.1616
-97.7371
-97.3089
-96.8769
-96.4411
-96.0013
-95.5576
-95.1098
-94.658
-94.2022
-93.7423
-93.2783
-92.8101
-92.3377
-91.8611
-91.3802
-90.8951
-90.4057
-89.912
-89.414
-88.9117
-88.4051
-87.8941
-87.3788
-86.859
-86.3348
-85.8063
-85.2733
-84.7358
-84.1938
-83.6473
-83.0962
-82.5406
-81.9804
-81.4157
-80.8464
-80.2724
-79.6937
-79.1104
-78.5224
-77.9296
-77.3321
-76.7298
-76.1226
-75.5106
-74.8937
-74.2719
-73.6453
-73.0137
-72.3771
-71.7354
-71.0887
-70.4368
-69.7798
-69.1177
-68.4504
-67.7779
-67.1002
-66.4171
-65.7287
-65.0349
-64.3357
-63.631
-62.9209
-62.2053
-61.484
-60.7572
-60.0247
-59.2864
-58.5425
-57.7927
-57.0372
-56.2757
-55.5084
-54.7352
-53.9559
-53.1706
-52.3792
-51.5816
-50.7777
-49.9677
-49.1514
-48.3288
-47.4998
-46.6645
-45.8226
-44.9743
-44.1193
-43.2578
-42.3897
-41.515
-40.6337
-39.7459
-38.8516
-37.9512
-37.0446
-36.1328
-35.2166
-34.2966
-33.3763
-32.4554
-31.5396
-30.6318
-29.7333
-159.086
-159.262
-159.782
-160.639
-161.905
-163.628
-165.823
-168.408
-171.342
-174.235
-176.567
-177.793
-177.479
-175.961
-172.87
-168.549
-163.472
-158.207
-153.051
-148.191
-143.72
-139.675
-136.069
-132.918
-130.199
-127.873
-125.891
-124.197
-122.735
-121.458
-120.327
-119.314
-118.397
-117.558
-116.785
-116.067
-115.396
-114.765
-114.169
-113.602
-113.062
-112.545
-112.047
-111.567
-111.102
-110.65
-110.211
-109.781
-109.359
-108.946
-108.538
-108.136
-107.738
-107.344
-106.953
-106.564
-106.177
-105.791
-105.405
-105.02
-104.634
-104.248
-103.86
-103.472
-103.082
-102.69
-102.296
-101.9
-101.501
-101.1
-100.696
-100.289
-99.8793
-99.4661
-99.0496
-98.6297
-98.2065
-97.7797
-97.3492
-96.9151
-96.4772
-96.0355
-95.5899
-95.1404
-94.6869
-94.2295
-93.7681
-93.3026
-92.8331
-92.3594
-91.8815
-91.3995
-90.9132
-90.4227
-89.928
-89.4291
-88.9259
-88.4184
-87.9066
-87.3905
-86.8701
-86.3452
-85.816
-85.2825
-84.7444
-84.2018
-83.6548
-83.1032
-82.5472
-81.9866
-81.4215
-80.8518
-80.2775
-79.6985
-79.1148
-78.5265
-77.9335
-77.3357
-76.7331
-76.1257
-75.5135
-74.8964
-74.2745
-73.6476
-73.0159
-72.3791
-71.7374
-71.0905
-70.4385
-69.7814
-69.1192
-68.4518
-67.7792
-67.1014
-66.4183
-65.7298
-65.0359
-64.3366
-63.6318
-62.9217
-62.206
-61.4847
-60.7578
-60.0253
-59.287
-58.543
-57.7932
-57.0376
-56.2762
-55.5089
-54.7356
-53.9564
-53.1711
-52.3797
-51.582
-50.7782
-49.9682
-49.1519
-48.3294
-47.5005
-46.6653
-45.8236
-44.9755
-44.1208
-43.2597
-42.3921
-41.518
-40.6375
-39.7507
-38.8577
-37.9589
-37.0544
-36.1451
-35.2318
-34.3154
-33.3989
-32.4824
-31.5708
-30.6667
-29.7713
-163.329
-163.853
-164.941
-166.572
-168.825
-171.834
-175.935
-181.392
-188.023
-194.865
-200.713
-204.877
-206.645
-204.662
-199.771
-192.391
-183.563
-174.399
-165.682
-157.791
-150.889
-144.977
-139.972
-135.801
-132.322
-129.47
-127.132
-125.197
-123.572
-122.179
-120.963
-119.884
-118.911
-118.026
-117.212
-116.46
-115.759
-115.102
-114.482
-113.895