/*--------------------------------*- C++ -*----------------------------------*\
| =========                 |                                                 |
| \\      /  F ield         | OpenFOAM: The Open Source CFD Toolbox           |
|  \\    /   O peration     | Version:  2.1.x                                 |
|   \\  /    A nd           | Web:      www.OpenFOAM.org                      |
|    \\/     M anipulation  |                                                 |
\*---------------------------------------------------------------------------*/
FoamFile
{
    version     2.0;
    format      ascii;
    class       surfaceScalarField;
    location    "0.003";
    object      phi;
}
// * * * * * * * * * * * * * * * * * * * * * * * * * * * * * * * * * * * * * //

dimensions      [0 3 -1 0 0 0 0];

internalField   nonuniform List<scalar> 
24170
(
1.9061e-06
1.23728e-06
1.14003e-06
7.66065e-07
8.29018e-07
3.11013e-07
7.06995e-07
1.22023e-07
6.33297e-07
7.36981e-08
6.14805e-07
1.84922e-08
6.4058e-07
-2.57745e-08
6.2541e-07
1.51699e-08
5.74903e-07
5.05066e-08
6.1697e-07
-4.20674e-08
6.9543e-07
-7.84592e-08
7.08341e-07
-1.2911e-08
6.65721e-07
4.26195e-08
6.82069e-07
-1.63482e-08
7.67121e-07
-8.50512e-08
9.0354e-07
-1.3642e-07
9.93783e-07
-9.02428e-08
-7.93253e-08
1.07311e-06
3.34488e-06
1.31435e-06
2.8742e-06
1.23674e-06
2.52534e-06
6.59875e-07
2.27067e-06
3.76687e-07
2.07901e-06
2.65363e-07
2.01036e-06
8.71365e-08
1.97646e-06
8.13048e-09
1.90023e-06
9.14001e-08
1.83214e-06
1.18596e-07
1.91092e-06
-1.20848e-07
1.99659e-06
-1.64129e-07
2.0022e-06
-1.85203e-08
1.94903e-06
9.57881e-08
1.97993e-06
-4.72455e-08
2.16361e-06
-2.68737e-07
2.36842e-06
-3.41224e-07
2.55535e-06
-2.77174e-07
-1.39051e-07
2.61507e-06
4.0719e-06
1.1236e-06
3.99449e-06
1.31415e-06
3.86094e-06
7.9343e-07
3.67323e-06
5.64392e-07
3.48082e-06
4.57772e-07
3.44404e-06
1.2392e-07
3.38887e-06
6.32975e-08
3.23411e-06
2.46157e-07
3.13857e-06
2.14141e-07
3.21783e-06
-2.00107e-07
3.29815e-06
-2.44449e-07
3.30612e-06
-2.64915e-08
3.26344e-06
1.38464e-07
3.24272e-06
-2.65185e-08
3.39089e-06
-4.16905e-07
3.64451e-06
-5.94849e-07
3.86545e-06
-4.98113e-07
-1.94221e-07
3.92062e-06
4.40342e-06
9.75633e-07
4.5353e-06
1.18228e-06
4.66424e-06
6.64486e-07
4.64826e-06
5.80378e-07
4.50431e-06
6.01719e-07
4.57226e-06
5.59631e-08
4.62769e-06
7.86997e-09
4.46775e-06
4.06099e-07
4.33522e-06
3.46667e-07
4.36353e-06
-2.28409e-07
4.45585e-06
-3.36772e-07
4.51198e-06
-8.26268e-08
4.49978e-06
1.50665e-07
4.45514e-06
1.8121e-08
4.53404e-06
-4.95803e-07
4.77944e-06
-8.40249e-07
4.8906e-06
-6.09266e-07
-1.97836e-07
4.89421e-06
4.81431e-06
8.08037e-07
5.03352e-06
9.63071e-07
5.12387e-06
5.74133e-07
5.10409e-06
6.00158e-07
5.10346e-06
6.02354e-07
5.1809e-06
-2.14854e-08
5.18998e-06
-1.20347e-09
5.13948e-06
4.56601e-07
5.18629e-06
2.99848e-07
5.2325e-06
-2.74611e-07
5.24842e-06
-3.52696e-07
5.20798e-06
-4.21843e-08
5.21406e-06
1.44581e-07
5.3183e-06
-8.61195e-08
5.4954e-06
-6.72902e-07
5.55429e-06
-8.99137e-07
5.41671e-06
-4.7169e-07
-2.4042e-07
5.4593e-06
5.26673e-06
6.45729e-07
5.42906e-06
8.00739e-07
5.47495e-06
5.28242e-07
5.57292e-06
5.02189e-07
5.67149e-06
5.0378e-07
5.6202e-06
2.98129e-08
5.57398e-06
4.50102e-08
5.6714e-06
3.59178e-07
5.76291e-06
2.08339e-07
5.69822e-06
-2.09915e-07
5.61626e-06
-2.70738e-07
5.66047e-06
-8.63979e-08
5.85159e-06
-4.65375e-08
6.0067e-06
-2.41222e-07
5.94062e-06
-6.06832e-07
5.74783e-06
-7.06341e-07
5.69419e-06
-4.18052e-07
-4.64549e-07
5.91832e-06
5.78651e-06
4.59845e-07
5.95133e-06
6.35923e-07
6.03122e-06
4.48348e-07
6.04995e-06
4.83467e-07
6.08566e-06
4.68063e-07
6.0141e-06
1.01376e-07
6.00989e-06
4.92229e-08
6.09338e-06
2.7569e-07
6.14015e-06
1.61562e-07
6.10062e-06
-1.70387e-07
6.10096e-06
-2.7107e-07
6.18451e-06
-1.69952e-07
6.29572e-06
-1.57745e-07
6.35777e-06
-3.03278e-07
6.26611e-06
-5.15168e-07
6.15043e-06
-5.90661e-07
6.27583e-06
-5.43455e-07
-6.9815e-07
6.50943e-06
4.42576e-06
2.12421e-07
4.57258e-06
4.89103e-07
4.62977e-06
3.9115e-07
4.70387e-06
4.09369e-07
4.8051e-06
3.66831e-07
4.78883e-06
1.17653e-07
4.74538e-06
9.2666e-08
4.79707e-06
2.23999e-07
4.85427e-06
1.04371e-07
4.81131e-06
-1.27432e-07
4.73764e-06
-1.97403e-07
4.74573e-06
-1.78038e-07
4.83107e-06
-2.43084e-07
4.89404e-06
-3.66244e-07
4.86344e-06
-4.84572e-07
4.87367e-06
-6.00888e-07
5.0056e-06
-6.75385e-07
-6.89425e-07
4.99687e-06
5.05649e-06
2.16854e-07
5.17723e-06
3.68363e-07
5.27826e-06
2.90114e-07
5.3294e-06
3.58234e-07
5.37757e-06
3.18658e-07
5.40029e-06
9.49302e-08
5.44904e-06
4.39198e-08
5.51598e-06
1.57055e-07
5.53267e-06
8.76894e-08
5.51668e-06
-1.11446e-07
5.53534e-06
-2.16065e-07
5.59751e-06
-2.40208e-07
5.64977e-06
-2.95339e-07
5.65589e-06
-3.72366e-07
5.65186e-06
-4.80549e-07
5.7287e-06
-6.77722e-07
5.78473e-06
-7.31414e-07
-5.47676e-07
5.64298e-06
5.98317e-06
2.23232e-07
6.03065e-06
3.20874e-07
6.06403e-06
2.56737e-07
6.15956e-06
2.62705e-07
6.2552e-06
2.23015e-07
6.2673e-06
8.28329e-08
6.2599e-06
5.13171e-08
6.31245e-06
1.04512e-07
6.3914e-06
8.73089e-09
6.43534e-06
-1.55384e-07
6.4394e-06
-2.2012e-07
6.4494e-06
-2.50209e-07
6.5009e-06
-3.4684e-07
6.61184e-06
-4.83301e-07
6.71065e-06
-5.79367e-07
6.66865e-06
-6.35722e-07
6.51209e-06
-5.74848e-07
-5.25267e-07
6.48968e-06
7.18425e-06
2.64843e-07
7.17148e-06
3.33639e-07
7.19619e-06
2.3203e-07
7.2165e-06
2.42389e-07
7.20488e-06
2.34643e-07
7.19806e-06
8.96456e-08
7.24232e-06
7.05804e-09
7.32371e-06
2.31285e-08
7.36716e-06
-3.47196e-08
7.38093e-06
-1.69154e-07
7.4259e-06
-2.65096e-07
7.50168e-06
-3.25989e-07
7.54656e-06
-3.91723e-07
7.51679e-06
-4.53523e-07
7.45845e-06
-5.21035e-07
7.46563e-06
-6.42899e-07
7.61244e-06
-7.21657e-07
-6.52281e-07
7.73945e-06
8.07525e-06
3.01248e-07
8.18314e-06
2.25746e-07
8.2363e-06
1.78872e-07
8.2797e-06
1.98991e-07
8.34228e-06
1.72062e-07
8.38261e-06
4.93142e-08
8.42968e-06
-4.0013e-08
8.5117e-06
-5.88932e-08
8.57813e-06
-1.01145e-07
8.59502e-06
-1.86047e-07
8.56326e-06
-2.33332e-07
8.51693e-06
-2.79658e-07
8.53336e-06
-4.08153e-07
8.63507e-06
-5.5524e-07
8.7295e-06
-6.15464e-07
8.7312e-06
-6.44592e-07
8.72284e-06
-7.13301e-07
-6.16586e-07
8.68715e-06
9.35416e-06
1.33967e-07
9.5445e-06
3.54067e-08
9.64244e-06
8.09377e-08
9.73668e-06
1.04748e-07
9.81919e-06
8.95503e-08
9.86551e-06
2.99304e-09
9.89472e-06
-6.92242e-08
9.9211e-06
-8.52647e-08
9.91583e-06
-9.58762e-08
9.90085e-06
-1.71068e-07
9.93794e-06
-2.70421e-07
1.00186e-05
-3.60328e-07
1.00578e-05
-4.47307e-07
1.00286e-05
-5.26098e-07
1.00036e-05
-5.90453e-07
9.99433e-06
-6.35313e-07
1.00626e-05
-7.81593e-07
-9.29099e-07
1.03751e-05
1.12089e-05
5.11135e-08
1.11653e-05
7.90686e-08
1.11273e-05
1.18928e-07
1.11262e-05
1.05828e-07
1.11767e-05
3.90878e-08
1.12579e-05
-7.82298e-08
1.13603e-05
-1.71672e-07
1.1491e-05
-2.15891e-07
1.16277e-05
-2.32643e-07
1.17236e-05
-2.66969e-07
1.1746e-05
-2.92768e-07
1.17201e-05
-3.34456e-07
1.16909e-05
-4.18094e-07
1.16812e-05
-5.1643e-07
1.16697e-05
-5.78951e-07
1.16419e-05
-6.0745e-07
1.15001e-05
-6.39853e-07
-7.1939e-07
1.12904e-05
1.27205e-05
-1.97694e-08
1.28279e-05
-2.83053e-08
1.29544e-05
-7.56821e-09
1.30377e-05
2.25719e-08
1.30761e-05
6.87472e-10
1.31135e-05
-1.15631e-07
1.31751e-05
-2.33323e-07
1.32711e-05
-3.11826e-07
1.33695e-05
-3.31068e-07
1.34445e-05
-3.41961e-07
1.35095e-05
-3.57785e-07
1.35498e-05
-3.74717e-07
1.35235e-05
-3.91834e-07
1.34439e-05
-4.36851e-07
1.33845e-05
-5.19561e-07
1.33789e-05
-6.01837e-07
1.33302e-05
-5.91174e-07
-5.10211e-07
1.31211e-05
1.50983e-05
-1.47326e-07
1.52135e-05
-1.43463e-07
1.52471e-05
-4.11801e-08
1.52326e-05
3.70668e-08
1.51858e-05
4.75244e-08
1.51219e-05
-5.17461e-08
1.50786e-05
-1.89999e-07
1.50768e-05
-3.10051e-07
1.51256e-05
-3.79906e-07
1.51904e-05
-4.06705e-07
1.52311e-05
-3.98536e-07
1.52541e-05
-3.97658e-07
1.52875e-05
-4.25323e-07
1.5327e-05
-4.76305e-07
1.5322e-05
-5.14516e-07
1.52777e-05
-5.57591e-07
1.5348e-05
-6.61498e-07
-7.21491e-07
1.55593e-05
1.78038e-05
-2.6385e-07
1.77987e-05
-1.38311e-07
1.77938e-05
-3.63024e-08
1.7809e-05
2.18851e-08
1.78291e-05
2.73735e-08
1.78007e-05
-2.33246e-08
1.77201e-05
-1.09411e-07
1.76172e-05
-2.07177e-07
1.75166e-05
-2.79254e-07
1.7446e-05
-3.36125e-07
1.74389e-05
-3.91396e-07
1.749e-05
-4.4876e-07
1.75574e-05
-4.92757e-07
1.76175e-05
-5.36369e-07
1.76811e-05
-5.78192e-07
1.77295e-05
-6.05987e-07
1.76694e-05
-6.01406e-07
-6.11014e-07
1.7559e-05
1.779e-05
-5.34918e-09
1.78115e-05
-1.59738e-07
1.79525e-05
-1.77294e-07
1.81413e-05
-1.67013e-07
1.83086e-05
-1.39909e-07
1.83941e-05
-1.08777e-07
1.83911e-05
-1.06426e-07
1.83335e-05
-1.49595e-07
1.82706e-05
-2.16288e-07
1.82372e-05
-3.0281e-07
1.8236e-05
-3.90131e-07
1.82505e-05
-4.63275e-07
1.82658e-05
-5.08078e-07
1.82623e-05
-5.32909e-07
1.82168e-05
-5.3264e-07
1.81311e-05
-5.20268e-07
1.80332e-05
-5.03574e-07
-4.81373e-07
1.79036e-05
1.56279e-05
-9.024e-08
1.57029e-05
-2.3479e-07
1.57571e-05
-2.31477e-07
1.58455e-05
-2.55436e-07
1.59901e-05
-2.84458e-07
1.6173e-05
-2.91765e-07
1.63287e-05
-2.62115e-07
1.64189e-05
-2.39751e-07
1.64545e-05
-2.51858e-07
1.6451e-05
-2.99381e-07
1.64194e-05
-3.58503e-07
1.63716e-05
-4.15501e-07
1.63142e-05
-4.5066e-07
1.62473e-05
-4.66033e-07
1.61733e-05
-4.58578e-07
1.60913e-05
-4.38339e-07
1.59998e-05
-4.12008e-07
-3.86791e-07
1.59052e-05
1.42334e-05
-1.52792e-07
1.41615e-05
-1.62935e-07
1.41636e-05
-2.336e-07
1.41916e-05
-2.83376e-07
1.42177e-05
-3.10585e-07
1.42431e-05
-3.17128e-07
1.42713e-05
-2.90365e-07
1.43008e-05
-2.69233e-07
1.43169e-05
-2.67914e-07
1.43049e-05
-2.87428e-07
1.42594e-05
-3.13055e-07
1.41868e-05
-3.42851e-07
1.41017e-05
-3.65512e-07
1.40194e-05
-3.83786e-07
1.39531e-05
-3.92289e-07
1.39087e-05
-3.93904e-07
1.38872e-05
-3.90506e-07
-3.82188e-07
1.38826e-05
1.25352e-05
-2.13697e-07
1.26774e-05
-3.05164e-07
1.27798e-05
-3.35965e-07
1.28567e-05
-3.60252e-07
1.29048e-05
-3.58694e-07
1.2927e-05
-3.39291e-07
1.29423e-05
-3.05694e-07
1.29634e-05
-2.90311e-07
1.29857e-05
-2.90299e-07
1.29919e-05
-2.93616e-07
1.29674e-05
-2.88512e-07
1.2911e-05
-2.86495e-07
1.2834e-05
-2.88522e-07
1.27508e-05
-3.00519e-07
1.26722e-05
-3.13757e-07
1.26064e-05
-3.28075e-07
1.25536e-05
-3.37703e-07
-3.43038e-07
1.25145e-05
1.13738e-05
-1.95907e-07
1.13592e-05
-2.90488e-07
1.14115e-05
-3.88296e-07
1.14737e-05
-4.22472e-07
1.15202e-05
-4.05174e-07
1.15547e-05
-3.73766e-07
1.15874e-05
-3.38451e-07
1.1615e-05
-3.17851e-07
1.16261e-05
-3.01416e-07
1.16179e-05
-2.85432e-07
1.15961e-05
-2.66712e-07
1.15675e-05
-2.57896e-07
1.15382e-05
-2.59199e-07
1.1512e-05
-2.74356e-07
1.14859e-05
-2.87623e-07
1.14538e-05
-2.96039e-07
1.1411e-05
-2.94854e-07
-2.8973e-07
1.13577e-05
9.95746e-06
-2.16516e-07
1.00171e-05
-3.50137e-07
1.01631e-05
-5.3429e-07
1.03225e-05
-5.81867e-07
1.04408e-05
-5.23432e-07
1.0497e-05
-4.29967e-07
1.05153e-05
-3.56755e-07
1.05184e-05
-3.21002e-07
1.05249e-05
-3.07944e-07
1.05431e-05
-3.03584e-07
1.05687e-05
-2.92351e-07
1.05927e-05
-2.81887e-07
1.06106e-05
-2.7707e-07
1.06165e-05
-2.80284e-07
1.06024e-05
-2.73493e-07
1.05621e-05
-2.55707e-07
1.04968e-05
-2.29565e-07
-2.04744e-07
1.04118e-05
9.0675e-06
-3.11424e-07
9.22174e-06
-5.0437e-07
9.3455e-06
-6.58055e-07
9.42277e-06
-6.59135e-07
9.45033e-06
-5.50991e-07
9.44885e-06
-4.28494e-07
9.44027e-06
-3.48168e-07
9.43499e-06
-3.15728e-07
9.44039e-06
-3.13342e-07
9.44962e-06
-3.1281e-07
9.45065e-06
-2.93388e-07
9.4356e-06
-2.66836e-07
9.40503e-06
-2.46498e-07
9.36034e-06
-2.35591e-07
9.3039e-06
-2.17054e-07
9.23833e-06
-1.90144e-07
9.16904e-06
-1.60276e-07
-1.40173e-07
9.10447e-06
7.97593e-06
-3.82321e-07
8.18456e-06
-7.12998e-07
8.32505e-06
-7.98547e-07
8.38487e-06
-7.18955e-07
8.40029e-06
-5.66412e-07
8.43378e-06
-4.61983e-07
8.48822e-06
-4.02607e-07
8.54088e-06
-3.68394e-07
8.57039e-06
-3.42848e-07
8.56728e-06
-3.09698e-07
8.54016e-06
-2.66274e-07
8.50216e-06
-2.28832e-07
8.46372e-06
-2.08061e-07
8.42687e-06
-1.98737e-07
8.38915e-06
-1.7934e-07
8.3492e-06
-1.50193e-07
8.30783e-06
-1.18898e-07
-9.89885e-08
8.26664e-06
7.15806e-06
-5.46203e-07
7.36112e-06
-9.1606e-07
7.52106e-06
-9.58484e-07
7.5796e-06
-7.77497e-07
7.57873e-06
-5.65539e-07
7.56511e-06
-4.48359e-07
7.56633e-06
-4.03833e-07
7.57961e-06
-3.81675e-07
7.59413e-06
-3.57362e-07
7.60287e-06
-3.18444e-07
7.60603e-06
-2.69426e-07
7.60169e-06
-2.24499e-07
7.59035e-06
-1.96716e-07
7.5683e-06
-1.76686e-07
7.5362e-06
-1.47237e-07
7.49677e-06
-1.10765e-07
7.45427e-06
-7.63965e-08
-5.76279e-08
7.41291e-06
6.44239e-06
-7.57788e-07
6.70934e-06
-1.18301e-06
6.81788e-06
-1.06703e-06
6.83625e-06
-7.95868e-07
6.86025e-06
-5.89536e-07
6.88568e-06
-4.73788e-07
6.89267e-06
-4.10827e-07
6.8671e-06
-3.56103e-07
6.8126e-06
-3.02861e-07
6.74537e-06
-2.51216e-07
6.68322e-06
-2.07274e-07
6.63179e-06
-1.73071e-07
6.58833e-06
-1.5326e-07
6.54486e-06
-1.33209e-07
6.50224e-06
-1.04624e-07
6.46131e-06
-6.98298e-08
6.42492e-06
-4.00128e-08
-2.29181e-08
6.39021e-06
5.85168e-06
-9.8669e-07
6.02584e-06
-1.35717e-06
5.99363e-06
-1.03483e-06
5.89841e-06
-7.00648e-07
5.79039e-06
-4.81509e-07
5.67114e-06
-3.54544e-07
5.53706e-06
-2.76743e-07
5.39402e-06
-2.13067e-07
5.25327e-06
-1.62107e-07
5.12866e-06
-1.26602e-07
5.02734e-06
-1.05958e-07
4.94531e-06
-9.10403e-08
4.87303e-06
-8.09843e-08
4.80637e-06
-6.65507e-08
4.75037e-06
-4.86235e-08
4.70721e-06
-2.66603e-08
4.67871e-06
-1.15165e-08
-2.48656e-09
4.65828e-06
5.12044e-06
-1.04052e-06
4.79522e-06
-1.03195e-06
4.39543e-06
-6.35041e-07
4.05193e-06
-3.57148e-07
3.76057e-06
-1.90147e-07
3.51239e-06
-1.06359e-07
3.30455e-06
-6.89028e-08
3.13963e-06
-4.81546e-08
3.0101e-06
-3.25733e-08
2.90701e-06
-2.35087e-08
2.82318e-06
-2.21284e-08
2.75429e-06
-2.21576e-08
2.69582e-06
-2.25146e-08
2.64937e-06
-2.00968e-08
2.61728e-06
-1.65363e-08
2.59984e-06
-9.21914e-09
2.5983e-06
-9.97585e-09
-1.78287e-09
2.5976e-06
3.31526e-06
2.28332e-06
1.64828e-06
1.29113e-06
1.10098e-06
9.94622e-07
9.25719e-07
8.77564e-07
8.44991e-07
8.21482e-07
7.99354e-07
7.77196e-07
7.54682e-07
7.34585e-07
7.18048e-07
7.08829e-07
6.98853e-07
6.97071e-07
-3.71006e-08
3.71006e-08
-5.97742e-08
2.26737e-08
-7.87783e-08
1.9004e-08
-9.55854e-08
1.68072e-08
-1.09823e-07
1.42372e-08
-1.2093e-07
1.11074e-08
-1.28305e-07
7.37512e-09
-1.31295e-07
2.99026e-09
-1.29258e-07
-2.03774e-09
-1.21683e-07
-7.57492e-09
-1.08202e-07
-1.34806e-08
-8.83749e-08
-1.98272e-08
-6.1755e-08
-2.66199e-08
-2.81509e-08
-3.36041e-08
1.26365e-08
-4.07874e-08
6.0691e-08
-4.80545e-08
1.15971e-07
-5.52798e-08
1.78344e-07
-6.2373e-08
2.47591e-07
-6.9247e-08
3.23408e-07
-7.58172e-08
4.05411e-07
-8.20029e-08
4.93143e-07
-8.77317e-08
5.86086e-07
-9.2943e-08
6.83676e-07
-9.75899e-08
7.85308e-07
-1.01633e-07
8.90348e-07
-1.05039e-07
9.98143e-07
-1.07795e-07
1.10805e-06
-1.09903e-07
1.21941e-06
-1.11365e-07
1.3316e-06
-1.12189e-07
1.444e-06
-1.12401e-07
1.55604e-06
-1.12037e-07
1.66717e-06
-1.1113e-07
1.77688e-06
-1.09716e-07
1.88473e-06
-1.07843e-07
1.99028e-06
-1.05559e-07
2.09319e-06
-1.02906e-07
2.19312e-06
-9.9929e-08
2.2898e-06
-9.66814e-08
2.38301e-06
-9.32104e-08
2.47256e-06
-8.95522e-08
2.55831e-06
-8.57451e-08
2.64014e-06
-8.18341e-08
2.718e-06
-7.78589e-08
2.79185e-06
-7.38466e-08
2.86167e-06
-6.98213e-08
2.92748e-06
-6.58129e-08
2.98933e-06
-6.18497e-08
3.04728e-06
-5.79507e-08
3.10141e-06
-5.41281e-08
3.15181e-06
-5.03973e-08
3.19858e-06
-4.6774e-08
3.24185e-06
-4.32688e-08
3.28174e-06
-3.98868e-08
3.31837e-06
-3.66329e-08
3.35188e-06
-3.35128e-08
3.38241e-06
-3.05295e-08
3.4101e-06
-2.76834e-08
3.43507e-06
-2.49742e-08
3.45747e-06
-2.2401e-08
3.47743e-06
-1.99611e-08
3.49508e-06
-1.76515e-08
3.51055e-06
-1.54704e-08
3.52397e-06
-1.34148e-08
3.53545e-06
-1.14786e-08
3.5451e-06
-9.6544e-09
3.55304e-06
-7.9391e-09
3.55937e-06
-6.33165e-09
3.5642e-06
-4.82778e-09
3.56762e-06
-3.41975e-09
3.56973e-06
-2.10477e-09
3.57062e-06
-8.96858e-10
3.57042e-06
2.01284e-10
3.56907e-06
1.35358e-09
3.56669e-06
2.37295e-09
3.56338e-06
3.31095e-09
3.5592e-06
4.17964e-09
3.55422e-06
4.98549e-09
3.54848e-06
5.73472e-09
3.54205e-06
6.4345e-09
3.53496e-06
7.08834e-09
3.52727e-06
7.6948e-09
3.51901e-06
8.2563e-09
3.51023e-06
8.78431e-09
3.50093e-06
9.29746e-09
3.49116e-06
9.77113e-09
3.48095e-06
1.02076e-08
3.47034e-06
1.06098e-08
3.45936e-06
1.0984e-08
3.44802e-06
1.13382e-08
3.43634e-06
1.16724e-08
3.42436e-06
1.1983e-08
3.41209e-06
1.22706e-08
3.39955e-06
1.25392e-08
3.38676e-06
1.2794e-08
3.37372e-06
1.3036e-08
3.36046e-06
1.32617e-08
3.34699e-06
1.34694e-08
3.33333e-06
1.36627e-08
3.31948e-06
1.38466e-08
3.30546e-06
1.40231e-08
3.29127e-06
1.41912e-08
3.27692e-06
1.43481e-08
3.26243e-06
1.44931e-08
3.2478e-06
1.46288e-08
3.23304e-06
1.4759e-08
3.21815e-06
1.48849e-08
3.20315e-06
1.50046e-08
3.18803e-06
1.51156e-08
3.17282e-06
1.52179e-08
3.1575e-06
1.53139e-08
3.14209e-06
1.54064e-08
3.1266e-06
1.54964e-08
3.11102e-06
1.55825e-08
3.09535e-06
1.56626e-08
3.07962e-06
1.57368e-08
3.06381e-06
1.58061e-08
3.04794e-06
1.58727e-08
3.032e-06
1.59376e-08
3.016e-06
1.60005e-08
2.99994e-06
1.60606e-08
2.98382e-06
1.61171e-08
2.96765e-06
1.61694e-08
2.95143e-06
1.62177e-08
2.93517e-06
1.62629e-08
2.91887e-06
1.63061e-08
2.90252e-06
1.63486e-08
2.88613e-06
1.6391e-08
2.86969e-06
1.64327e-08
2.85322e-06
1.64722e-08
2.83671e-06
1.65078e-08
2.82017e-06
1.65395e-08
2.80361e-06
1.65686e-08
2.78701e-06
1.65974e-08
2.77038e-06
1.66273e-08
2.75372e-06
1.66577e-08
2.73704e-06
1.66865e-08
2.72032e-06
1.67116e-08
2.70359e-06
1.67329e-08
2.68684e-06
1.67521e-08
2.67007e-06
1.67711e-08
2.65328e-06
1.67906e-08
2.63647e-06
1.68098e-08
2.61964e-06
1.68276e-08
2.6028e-06
1.68431e-08
2.58594e-06
1.68561e-08
2.56907e-06
1.68676e-08
2.5522e-06
1.6879e-08
2.5353e-06
1.68911e-08
2.5184e-06
1.69037e-08
2.50148e-06
1.6916e-08
2.48456e-06
1.69276e-08
2.46762e-06
1.69392e-08
2.45067e-06
1.69508e-08
2.4337e-06
1.69627e-08
2.41673e-06
1.69769e-08
2.39973e-06
1.69948e-08
2.38271e-06
1.70179e-08
2.36567e-06
1.70487e-08
2.34858e-06
1.70881e-08
2.33144e-06
1.71374e-08
2.31424e-06
1.7201e-08
2.29696e-06
1.72814e-08
2.27957e-06
1.73871e-08
2.26205e-06
1.75247e-08
2.24434e-06
1.77075e-08
2.22639e-06
1.795e-08
2.20813e-06
1.8258e-08
2.1894e-06
1.87264e-08
2.17025e-06
1.91493e-08
2.14988e-06
2.03727e-08
2.12961e-06
2.02691e-08
2.10495e-06
2.46623e-08
2.08442e-06
2.05351e-08
2.04822e-06
3.61984e-08
2.02937e-06
1.88491e-08
1.96616e-06
6.32103e-08
1.94555e-06
2.06114e-08
1.81045e-06
1.35097e-07
5.92436e-08
1.75121e-06
-3.98551e-08
7.69557e-08
-6.29826e-08
4.58011e-08
-8.20636e-08
3.8085e-08
-9.89656e-08
3.37091e-08
-1.13149e-07
2.84211e-08
-1.24111e-07
2.20693e-08
-1.3101e-07
1.42738e-08
-1.3336e-07
5.33986e-09
-1.30184e-07
-5.21361e-09
-1.21011e-07
-1.67481e-08
-1.05257e-07
-2.92344e-08
-8.25447e-08
-4.25393e-08
-5.25352e-08
-5.66294e-08
-1.49056e-08
-7.12336e-08
3.05396e-08
-8.62326e-08
8.417e-08
-1.01685e-07
1.45748e-07
-1.16858e-07
2.15173e-07
-1.31798e-07
2.92246e-07
-1.46321e-07
3.76677e-07
-1.60248e-07
4.68091e-07
-1.73417e-07
5.66039e-07
-1.85679e-07
6.70004e-07
-1.96908e-07
7.79422e-07
-2.07008e-07
8.93692e-07
-2.15903e-07
1.01219e-06
-2.23536e-07
1.13427e-06
-2.29879e-07
1.2593e-06
-2.34926e-07
1.38661e-06
-2.38681e-07
1.5156e-06
-2.41174e-07
1.64566e-06
-2.42464e-07
1.77623e-06
-2.4261e-07
1.90677e-06
-2.41667e-07
2.03676e-06
-2.3971e-07
2.16576e-06
-2.36837e-07
2.29334e-06
-2.33141e-07
2.41914e-06
-2.28702e-07
2.54281e-06
-2.23599e-07
2.66405e-06
-2.17927e-07
2.78262e-06
-2.11778e-07
2.8983e-06
-2.0523e-07
3.01091e-06
-1.98354e-07
3.12029e-06
-1.91221e-07
3.22634e-06
-1.83901e-07
3.32894e-06
-1.76454e-07
3.42806e-06
-1.68936e-07
3.52364e-06
-1.61393e-07
3.61566e-06
-1.53868e-07
3.70411e-06
-1.46401e-07
3.78901e-06
-1.39029e-07
3.87039e-06
-1.3178e-07
3.94829e-06
-1.24675e-07
4.02276e-06
-1.17736e-07
4.09385e-06
-1.1098e-07
4.16164e-06
-1.04426e-07
4.22621e-06
-9.80794e-08
4.28763e-06
-9.19467e-08
4.34598e-06
-8.60346e-08
4.40135e-06
-8.03491e-08
4.45384e-06
-7.48911e-08
4.50354e-06
-6.9657e-08
4.55053e-06
-6.46453e-08
4.59492e-06
-5.98564e-08
4.63679e-06
-5.52874e-08
4.67624e-06
-5.09304e-08
4.71337e-06
-4.67782e-08
4.74826e-06
-4.28272e-08
4.781e-06
-3.90742e-08
4.81168e-06
-3.55113e-08
4.84039e-06
-3.21295e-08
4.86721e-06
-2.8924e-08
4.8922e-06
-2.58883e-08
4.91541e-06
-2.30011e-08
4.93701e-06
-2.02496e-08
4.95704e-06
-1.76551e-08
4.97555e-06
-1.52067e-08
4.99263e-06
-1.2897e-08
5.00833e-06
-1.07169e-08
5.02272e-06
-8.65422e-09
5.03586e-06
-6.70031e-09
5.0478e-06
-4.85285e-09
5.0586e-06
-3.112e-09
5.06834e-06
-1.48123e-09
5.07712e-06
3.33053e-12
5.08485e-06
1.5681e-09
5.09164e-06
2.98206e-09
5.09754e-06
4.30593e-09
5.1026e-06
5.55159e-09
5.10686e-06
6.72955e-09
5.11035e-06
7.84611e-09
5.11312e-06
8.90208e-09
5.1152e-06
9.89694e-09
5.11664e-06
1.08378e-08
5.11745e-06
1.17312e-08
5.11766e-06
1.25793e-08
5.11731e-06
1.33825e-08
5.11644e-06
1.41402e-08
5.11505e-06
1.48545e-08
5.11318e-06
1.55315e-08
5.11085e-06
1.61761e-08
5.10809e-06
1.67896e-08
5.1049e-06
1.73723e-08
5.10133e-06
1.79248e-08
5.09737e-06
1.84486e-08
5.09305e-06
1.89467e-08
5.08839e-06
1.94218e-08
5.0834e-06
1.98749e-08
5.0781e-06
2.03058e-08
5.0725e-06
2.07148e-08
5.06662e-06
2.11035e-08
5.06045e-06
2.14752e-08
5.05403e-06
2.18318e-08
5.04735e-06
2.2174e-08
5.04043e-06
2.25012e-08
5.03328e-06
2.28127e-08
5.02591e-06
2.31098e-08
5.01832e-06
2.33948e-08
5.01052e-06
2.36702e-08
5.00252e-06
2.39372e-08
4.99433e-06
2.41951e-08
4.98595e-06
2.44434e-08
4.97738e-06
2.46811e-08
4.96864e-06
2.49089e-08
4.95973e-06
2.51282e-08
4.95065e-06
2.53407e-08
4.94141e-06
2.55479e-08
4.93201e-06
2.57507e-08
4.92245e-06
2.59495e-08
4.91274e-06
2.61437e-08
4.90288e-06
2.63324e-08
4.89287e-06
2.65146e-08
4.88272e-06
2.66906e-08
4.87243e-06
2.68625e-08
4.86199e-06
2.70327e-08
4.85142e-06
2.72026e-08
4.8407e-06
2.73716e-08
4.82985e-06
2.75374e-08
4.81887e-06
2.76979e-08
4.80775e-06
2.78533e-08
4.79649e-06
2.80061e-08
4.7851e-06
2.81589e-08
4.77358e-06
2.83123e-08
4.76193e-06
2.84654e-08
4.75014e-06
2.86165e-08
4.73822e-06
2.87645e-08
4.72616e-06
2.89096e-08
4.71398e-06
2.90539e-08
4.70166e-06
2.91998e-08
4.6892e-06
2.93484e-08
4.6766e-06
2.9499e-08
4.66387e-06
2.96507e-08
4.65099e-06
2.98035e-08
4.63797e-06
2.99579e-08
4.62481e-06
3.01153e-08
4.6115e-06
3.02775e-08
4.59802e-06
3.04473e-08
4.58439e-06
3.06276e-08
4.57059e-06
3.08218e-08
4.5566e-06
3.10347e-08
4.54242e-06
3.12699e-08
4.52803e-06
3.15315e-08
4.5134e-06
3.18288e-08
4.49851e-06
3.21705e-08
4.48332e-06
3.25728e-08
4.4678e-06
3.30527e-08
4.45186e-06
3.36401e-08
4.43545e-06
3.43602e-08
4.41844e-06
3.52668e-08
4.40075e-06
3.64212e-08
4.38206e-06
3.78344e-08
4.36234e-06
4.01008e-08
4.34105e-06
4.15527e-08
4.31712e-06
4.85941e-08
4.29317e-06
4.44881e-08
4.25706e-06
7.23025e-08
4.23405e-06
4.18635e-08
4.16562e-06
1.31635e-07
4.13686e-06
4.93791e-08
4.01779e-06
2.54168e-07
1.79056e-07
3.89797e-06
-4.70512e-08
1.24007e-07
-7.59964e-08
7.47463e-08
-1.00459e-07
6.25474e-08
-1.22549e-07
5.57998e-08
-1.41951e-07
4.78223e-08
-1.5783e-07
3.79489e-08
-1.69503e-07
2.5947e-08
-1.76178e-07
1.20142e-08
-1.76866e-07
-4.52565e-09
-1.70978e-07
-2.26361e-08
-1.57961e-07
-4.22507e-08
-1.37214e-07
-6.32868e-08
-1.08386e-07
-8.54575e-08
-7.11777e-08
-1.08442e-07
-2.53354e-08
-1.32075e-07
2.867e-08
-1.5569e-07
9.1632e-08
-1.7982e-07
1.63022e-07
-2.03188e-07
2.42579e-07
-2.25878e-07
3.29922e-07
-2.47591e-07
4.24578e-07
-2.68073e-07
5.26004e-07
-2.87105e-07
6.33605e-07
-3.04509e-07
7.46748e-07
-3.2015e-07
8.64751e-07
-3.33907e-07
9.86908e-07
-3.45693e-07
1.11252e-06
-3.55489e-07
1.2409e-06
-3.63305e-07
1.37137e-06
-3.69157e-07
1.5033e-06
-3.73098e-07
1.63604e-06
-3.75207e-07
1.76901e-06
-3.75583e-07
1.90169e-06
-3.74348e-07
2.03362e-06
-3.71632e-07
2.16433e-06
-3.67549e-07
2.29341e-06
-3.62219e-07
2.4205e-06
-3.55792e-07
2.54532e-06
-3.48422e-07
2.66762e-06
-3.40228e-07
2.78716e-06
-3.31315e-07
2.90373e-06
-3.21802e-07
3.01719e-06
-3.11818e-07
3.12744e-06
-3.01471e-07
3.23439e-06
-2.90845e-07
3.33795e-06
-2.80013e-07
3.43807e-06
-2.6906e-07
3.53474e-06
-2.58065e-07
3.62797e-06
-2.47092e-07
3.71775e-06
-2.36186e-07
3.80411e-06
-2.2539e-07
3.88708e-06
-2.14748e-07
3.9667e-06
-2.043e-07
4.04304e-06
-1.94077e-07
4.11616e-06
-1.84099e-07
4.18612e-06
-1.74382e-07
4.25298e-06
-1.64942e-07
4.31683e-06
-1.55794e-07
4.37775e-06
-1.4695e-07
4.43581e-06
-1.38416e-07
4.49111e-06
-1.30187e-07
4.54372e-06
-1.22263e-07
4.59372e-06
-1.14648e-07
4.64121e-06
-1.07344e-07
4.68627e-06
-1.00347e-07
4.72898e-06
-9.36437e-08
4.76943e-06
-8.72268e-08
4.80769e-06
-8.10947e-08
4.84386e-06
-7.52434e-08
4.87801e-06
-6.96624e-08
4.91022e-06
-6.43389e-08
4.94056e-06
-5.92646e-08
4.96911e-06
-5.44313e-08
4.99594e-06
-4.98304e-08
5.02114e-06
-4.54508e-08
5.04477e-06
-4.12859e-08
5.06689e-06
-3.73305e-08
5.08757e-06
-3.35775e-08
5.10687e-06
-3.00155e-08
5.12485e-06
-2.66314e-08
5.14157e-06
-2.34164e-08
5.15708e-06
-2.03671e-08
5.17145e-06
-1.74817e-08
5.18472e-06
-1.47525e-08
5.19688e-06
-1.21584e-08
5.20811e-06
-9.65902e-09
5.21839e-06
-7.29923e-09
5.22776e-06
-5.06627e-09
5.23627e-06
-2.95466e-09
5.24396e-06
-9.61211e-10
5.25087e-06
9.34687e-10
5.25704e-06
2.73068e-09
5.26251e-06
4.42614e-09
5.26731e-06
6.04255e-09
5.27146e-06
7.5778e-09
5.27501e-06
9.02932e-09
5.27799e-06
1.04049e-08
5.28042e-06
1.17085e-08
5.28233e-06
1.29428e-08
5.28375e-06
1.41126e-08
5.28471e-06
1.52227e-08
5.28522e-06
1.62771e-08
5.28531e-06
1.72789e-08
5.28501e-06
1.82312e-08
5.28432e-06
1.91368e-08
5.28327e-06
1.9998e-08
5.28187e-06
2.08157e-08
5.28016e-06
2.15915e-08
5.27813e-06
2.23278e-08
5.27582e-06
2.30284e-08
5.27323e-06
2.36971e-08
5.27036e-06
2.43364e-08
5.26725e-06
2.49472e-08
5.26389e-06
2.55286e-08
5.26031e-06
2.60811e-08
5.25652e-06
2.6607e-08
5.25252e-06
2.71098e-08
5.24832e-06
2.75932e-08
5.24393e-06
2.80594e-08
5.23936e-06
2.85082e-08
5.23462e-06
2.8938e-08
5.22971e-06
2.93482e-08
5.22466e-06
2.97401e-08
5.21945e-06
3.01166e-08
5.21409e-06
3.04811e-08
5.2086e-06
3.08353e-08
5.20297e-06
3.11792e-08
5.19721e-06
3.15123e-08
5.19132e-06
3.18343e-08
5.18532e-06
3.21463e-08
5.1792e-06
3.24488e-08
5.17297e-06
3.2743e-08
5.16664e-06
3.30296e-08
5.16019e-06
3.33098e-08
5.15364e-06
3.35851e-08
5.14698e-06
3.38563e-08
5.14023e-06
3.41231e-08
5.13338e-06
3.43842e-08
5.12644e-06
3.46392e-08
5.11941e-06
3.48894e-08
5.11228e-06
3.51365e-08
5.10505e-06
3.53822e-08
5.09774e-06
3.56267e-08
5.09033e-06
3.58693e-08
5.08284e-06
3.61087e-08
5.07526e-06
3.63443e-08
5.0676e-06
3.65774e-08
5.05984e-06
3.68112e-08
5.05199e-06
3.70477e-08
5.04405e-06
3.7287e-08
5.03602e-06
3.75281e-08
5.0279e-06
3.7771e-08
5.01969e-06
3.80164e-08
5.01138e-06
3.82658e-08
5.00297e-06
3.85215e-08
4.99447e-06
3.8787e-08
4.98585e-06
3.90647e-08
4.97712e-06
3.93581e-08
4.96827e-06
3.96731e-08
4.95929e-06
4.00155e-08
4.95016e-06
4.03928e-08
4.94088e-06
4.08127e-08
4.93142e-06
4.12884e-08
4.92176e-06
4.18355e-08
4.91186e-06
4.24732e-08
4.90167e-06
4.32371e-08
4.89117e-06
4.41453e-08
4.88022e-06
4.53058e-08
4.86886e-06
4.66255e-08
4.85669e-06
4.8598e-08
4.84414e-06
5.03768e-08
4.82975e-06
5.44953e-08
4.81559e-06
5.57134e-08
4.79712e-06
6.70641e-08
4.78007e-06
6.15408e-08
4.75487e-06
9.74983e-08
4.72949e-06
6.72446e-08
4.69506e-06
1.66064e-07
4.64385e-06
1.00585e-07
4.60558e-06
2.92436e-07
2.79189e-07
4.50545e-06
-5.69357e-08
1.80943e-07
-9.49601e-08
1.12771e-07
-1.278e-07
9.53877e-08
-1.5829e-07
8.62891e-08
-1.85715e-07
7.5248e-08
-2.09112e-07
6.13455e-08
-2.27661e-07
4.4496e-08
-2.40597e-07
2.49505e-08
-2.47198e-07
2.0755e-09
-2.4611e-07
-2.37244e-08
-2.36825e-07
-5.15353e-08
-2.18734e-07
-8.13784e-08
-1.91338e-07
-1.12853e-07
-1.54408e-07
-1.45372e-07
-1.07615e-07
-1.78867e-07
-5.09157e-08
-2.1239e-07
1.49165e-08
-2.45652e-07
9.03352e-08
-2.78606e-07
1.7486e-07
-3.10402e-07
2.67863e-07
-3.40594e-07
3.6873e-07
-3.6894e-07
4.76765e-07
-3.95141e-07
5.91215e-07
-4.18959e-07
7.11287e-07
-4.40223e-07
8.36176e-07
-4.58795e-07
9.65087e-07
-4.74603e-07
1.09723e-06
-4.87631e-07
1.2318e-06
-4.97879e-07
1.36805e-06
-5.05403e-07
1.50528e-06
-5.10334e-07
1.64288e-06
-5.12807e-07
1.78024e-06
-5.12942e-07
1.9168e-06
-5.10902e-07
2.05205e-06
-5.06883e-07
2.18557e-06
-5.01074e-07
2.31702e-06
-4.93662e-07
2.44606e-06
-4.84835e-07
2.57241e-06
-4.7477e-07
2.69581e-06
-4.63633e-07
2.81609e-06
-4.51596e-07
2.93312e-06
-4.38832e-07
3.04679e-06
-4.25484e-07
3.15698e-06
-4.11664e-07
3.26363e-06
-3.9749e-07
3.36671e-06
-3.83091e-07
3.46622e-06
-3.68576e-07
3.56218e-06
-3.54019e-07
3.65456e-06
-3.3948e-07
3.74341e-06
-3.25033e-07
3.82878e-06
-3.10756e-07
3.91073e-06
-2.967e-07
3.98932e-06
-2.82892e-07
4.0646e-06
-2.69358e-07
4.13665e-06
-2.56142e-07
4.20554e-06
-2.43276e-07
4.27137e-06
-2.30773e-07
4.33422e-06
-2.18638e-07
4.39415e-06
-2.06884e-07
4.45126e-06
-1.95526e-07
4.50564e-06
-1.84568e-07
4.55738e-06
-1.74004e-07
4.60656e-06
-1.63831e-07
4.65327e-06
-1.54052e-07
4.69759e-06
-1.44667e-07
4.73961e-06
-1.35663e-07
4.77941e-06
-1.27028e-07
4.81708e-06
-1.1876e-07
4.85268e-06
-1.10851e-07
4.88632e-06
-1.03293e-07
4.91805e-06
-9.60697e-08
4.94795e-06
-8.91689e-08
4.9761e-06
-8.25835e-08
5.00258e-06
-7.63052e-08
5.02745e-06
-7.03208e-08
5.05078e-06
-6.46165e-08
5.07263e-06
-5.91835e-08
5.09307e-06
-5.40141e-08
5.11215e-06
-4.90976e-08
5.12994e-06
-4.442e-08
5.14649e-06
-3.99696e-08
5.16186e-06
-3.57395e-08
5.1761e-06
-3.17225e-08
5.18926e-06
-2.79058e-08
5.20138e-06
-2.42761e-08
5.21253e-06
-2.08172e-08
5.22276e-06
-1.75299e-08
5.23211e-06
-1.44112e-08
5.24061e-06
-1.14537e-08
5.2483e-06
-8.64923e-09
5.25522e-06
-5.98551e-09
5.26141e-06
-3.46175e-09
5.26691e-06
-1.07884e-09
5.27175e-06
1.20824e-09
5.27595e-06
3.37239e-09
5.27956e-06
5.41901e-09
5.28261e-06
7.36137e-09
5.28511e-06
9.20268e-09
5.28711e-06
1.09479e-08
5.28862e-06
1.26031e-08
5.28967e-06
1.41732e-08
5.29028e-06
1.56638e-08
5.29048e-06
1.70806e-08
5.29028e-06
1.84282e-08
5.28971e-06
1.97098e-08
5.28878e-06
2.09273e-08
5.28751e-06
2.20814e-08
5.28593e-06
2.31752e-08
5.28404e-06
2.42134e-08
5.28187e-06
2.52025e-08
5.27942e-06
2.61471e-08
5.27671e-06
2.70494e-08
5.27375e-06
2.79087e-08
5.27055e-06
2.87247e-08
5.26713e-06
2.94985e-08
5.2635e-06
3.02346e-08
5.25968e-06
3.09392e-08
5.25565e-06
3.1617e-08
5.25144e-06
3.22693e-08
5.24706e-06
3.28946e-08
5.2425e-06
3.34911e-08
5.23779e-06
3.4058e-08
5.23293e-06
3.45989e-08