/*--------------------------------*- C++ -*----------------------------------*\
| =========                 |                                                 |
| \\      /  F ield         | OpenFOAM: The Open Source CFD Toolbox           |
|  \\    /   O peration     | Version:  2.1.x                                 |
|   \\  /    A nd           | Web:      www.OpenFOAM.org                      |
|    \\/     M anipulation  |                                                 |
\*---------------------------------------------------------------------------*/
FoamFile
{
    version     2.0;
    format      ascii;
    class       surfaceScalarField;
    location    "0.003";
    object      phi_0;
}
// * * * * * * * * * * * * * * * * * * * * * * * * * * * * * * * * * * * * * //

dimensions      [0 3 -1 0 0 0 0];

internalField   nonuniform List<scalar> 
24170
(
1.90565e-06
1.23193e-06
1.14281e-06
7.6284e-07
8.33586e-07
3.09226e-07
7.11775e-07
1.21811e-07
6.38303e-07
7.34723e-08
6.21771e-07
1.65317e-08
6.46981e-07
-2.52099e-08
6.28782e-07
1.81991e-08
5.80125e-07
4.86571e-08
6.2659e-07
-4.64656e-08
7.03481e-07
-7.68907e-08
7.1171e-07
-8.22882e-09
6.68552e-07
4.31572e-08
6.90663e-07
-2.21109e-08
7.81364e-07
-9.07006e-08
9.17783e-07
-1.36419e-07
1.00446e-06
-8.66759e-08
-7.44421e-08
1.0789e-06
3.34348e-06
1.29195e-06
2.87845e-06
1.22787e-06
2.53114e-06
6.56533e-07
2.27605e-06
3.76903e-07
2.08597e-06
2.63549e-07
2.01935e-06
8.31577e-08
1.98255e-06
1.1586e-08
1.90353e-06
9.72191e-08
1.84003e-06
1.12158e-07
1.92383e-06
-1.30261e-07
2.0055e-06
-1.58558e-07
2.00496e-06
-7.69134e-09
1.95225e-06
9.58628e-08
1.99281e-06
-6.26703e-08
2.18493e-06
-2.82822e-07
2.38861e-06
-3.40098e-07
2.56607e-06
-2.64133e-07
-1.23119e-07
2.61475e-06
4.06887e-06
1.05891e-06
3.99829e-06
1.29845e-06
3.86634e-06
7.88478e-07
3.67757e-06
5.65675e-07
3.48935e-06
4.51769e-07
3.45589e-06
1.16614e-07
3.3941e-06
7.33774e-08
3.23585e-06
2.55476e-07
3.14776e-06
2.00247e-07
3.23277e-06
-2.15276e-07
3.30892e-06
-2.34703e-07
3.31009e-06
-8.86469e-09
3.26538e-06
1.40575e-07
3.25323e-06
-5.05264e-08
3.41409e-06
-4.43679e-07
3.67138e-06
-5.97388e-07
3.8788e-06
-4.71554e-07
-1.6939e-07
3.92507e-06
4.40008e-06
9.52985e-07
4.54365e-06
1.15487e-06
4.67511e-06
6.57023e-07
4.65165e-06
5.89133e-07
4.51254e-06
5.90877e-07
4.58935e-06
3.98037e-08
4.63452e-06
2.82103e-08
4.46569e-06
4.24307e-07
4.34037e-06
3.25566e-07
4.3776e-06
-2.5251e-07
4.47046e-06
-3.27559e-07
4.52014e-06
-5.85428e-08
4.5008e-06
1.59915e-07
4.46327e-06
-1.30019e-08
4.55584e-06
-5.36249e-07
4.80303e-06
-8.44572e-07
4.89942e-06
-5.67945e-07
-1.82027e-07
4.91205e-06
4.81833e-06
7.53817e-07
5.04317e-06
9.30031e-07
5.12982e-06
5.70382e-07
5.10775e-06
6.11196e-07
5.11358e-06
5.85052e-07
5.19135e-06
-3.79713e-08
5.19546e-06
2.41027e-08
5.14663e-06
4.73134e-07
5.19904e-06
2.73163e-07
5.24362e-06
-2.97096e-07
5.2538e-06
-3.37741e-07
5.21102e-06
-1.57623e-08
5.22588e-06
1.45059e-07
5.34048e-06
-1.27607e-07
5.51593e-06
-7.11695e-07
5.55469e-06
-8.83327e-07
5.41663e-06
-4.29886e-07
-2.46762e-07
5.48136e-06
5.27365e-06
5.71671e-07
5.43648e-06
7.67211e-07
5.48517e-06
5.2169e-07
5.58653e-06
5.09834e-07
5.6799e-06
4.91682e-07
5.62331e-06
1.86161e-08
5.58323e-06
6.41834e-08
5.68669e-06
3.69678e-07
5.77154e-06
1.88306e-07
5.69956e-06
-2.25115e-07
5.62247e-06
-2.60645e-07
5.67941e-06
-7.27045e-08
5.87708e-06
-5.26105e-08
6.018e-06
-2.68529e-07
5.93421e-06
-6.27908e-07
5.74276e-06
-6.91877e-07
5.71563e-06
-4.02751e-07
-4.92556e-07
5.96142e-06
5.80111e-06
4.26192e-07
5.96237e-06
6.05952e-07
6.04173e-06
4.42329e-07
6.05999e-06
4.91575e-07
6.0917e-06
4.59967e-07
6.01885e-06
9.14684e-08
6.0212e-06
6.18344e-08
6.10655e-06
2.84322e-07
6.14808e-06
1.4678e-07
6.10762e-06
-1.84655e-07
6.11385e-06
-2.66872e-07
6.20239e-06
-1.61251e-07
6.31201e-06
-1.62231e-07
6.3637e-06
-3.20212e-07
6.26352e-06
-5.27734e-07
6.16105e-06
-5.89406e-07
6.30797e-06
-5.49672e-07
-7.21987e-07
6.53741e-06
4.44489e-06
1.9086e-07
4.58285e-06
4.67985e-07
4.64063e-06
3.84553e-07
4.71764e-06
4.14569e-07
4.81461e-06
3.62987e-07
4.79246e-06
1.13623e-07
4.75213e-06
1.02165e-07
4.80816e-06
2.28288e-07
4.86091e-06
9.40301e-08
4.81189e-06
-1.35637e-07
4.74076e-06
-1.95739e-07
4.75661e-06
-1.77099e-07
4.84455e-06
-2.50174e-07
4.90154e-06
-3.77203e-07
4.86894e-06
-4.95132e-07
4.88854e-06
-6.09e-07
5.0181e-06
-6.79239e-07
-6.93647e-07
4.98976e-06
5.07006e-06
2.01212e-07
5.19069e-06
3.47354e-07
5.29071e-06
2.84529e-07
5.34116e-06
3.64123e-07
5.38798e-06
3.16165e-07
5.41067e-06
9.09309e-08
5.46118e-06
5.16604e-08
5.52642e-06
1.63047e-07
5.5398e-06
8.06532e-08
5.52451e-06
-1.20356e-07
5.54697e-06
-2.18193e-07
5.61035e-06
-2.40478e-07
5.65915e-06
-2.98974e-07
5.66236e-06
-3.80412e-07
5.66309e-06
-4.95865e-07
5.74274e-06
-6.88653e-07
5.7852e-06
-7.21699e-07
-5.54468e-07
5.64602e-06
5.99832e-06
2.40794e-07
6.04383e-06
3.01845e-07
6.07845e-06
2.49914e-07
6.17696e-06
2.65611e-07
6.26924e-06
2.23884e-07
6.27644e-06
8.37338e-08
6.27041e-06
5.76824e-08
6.32649e-06
1.06968e-07
6.40568e-06
1.46576e-09
6.44615e-06
-1.60825e-07
6.44887e-06
-2.20915e-07
6.4613e-06
-2.52907e-07
6.51798e-06
-3.55653e-07
6.63223e-06
-4.94666e-07
6.72252e-06
-5.86146e-07
6.66536e-06
-6.31495e-07
6.51018e-06
-5.66525e-07
-5.58473e-07
6.51419e-06
7.19555e-06
1.97367e-07
7.18718e-06
3.10213e-07
7.21035e-06
2.26749e-07
7.22895e-06
2.47008e-07
7.21625e-06
2.36584e-07
7.21079e-06
8.91925e-08
7.25782e-06
1.06504e-08
7.3392e-06
2.55957e-08
7.37915e-06
-3.84893e-08
7.39365e-06
-1.75325e-07
7.44213e-06
-2.69391e-07
7.51817e-06
-3.28949e-07
7.5573e-06
-3.94786e-07
7.52156e-06
-4.58919e-07
7.46676e-06
-5.31349e-07
7.48733e-06
-6.52067e-07
7.63972e-06
-7.18912e-07
-6.50428e-07
7.73167e-06
8.10657e-06
2.4365e-07
8.21015e-06
2.06637e-07
8.25624e-06
1.80654e-07
8.29791e-06
2.05335e-07
8.3599e-06
1.74594e-07
8.39934e-06
4.97589e-08
8.4475e-06
-3.75129e-08
8.52955e-06
-5.64567e-08
8.59314e-06
-1.02077e-07
8.60551e-06
-1.87694e-07
8.57078e-06
-2.34661e-07
8.52722e-06
-2.85386e-07
8.55167e-06
-4.19234e-07
8.65747e-06
-5.64726e-07
8.74612e-06
-6.2e-07
8.74309e-06
-6.49035e-07
8.73179e-06
-7.07611e-07
-6.05559e-07
8.68692e-06
9.42033e-06
1.2293e-07
9.58607e-06
4.08995e-08
9.67136e-06
9.53636e-08
9.76084e-06
1.15854e-07
9.84005e-06
9.53784e-08
9.8838e-06
6.00919e-09
9.91112e-06
-6.48344e-08
9.93519e-06
-8.05264e-08
9.92802e-06
-9.49016e-08
9.91514e-06
-1.74816e-07
9.9566e-06
-2.76124e-07
1.00377e-05
-3.66443e-07
1.00716e-05
-4.53197e-07
1.00389e-05
-5.32003e-07
1.0015e-05
-5.96105e-07
1.00128e-05
-6.46783e-07
1.01036e-05
-7.98437e-07
-9.03896e-07
1.04019e-05
1.12779e-05
1.12188e-07
1.11975e-05
1.21293e-07
1.11502e-05
1.42728e-07
1.11473e-05
1.18691e-07
1.11992e-05
4.3529e-08
1.1282e-05
-7.68576e-08
1.13864e-05
-1.69241e-07
1.15184e-05
-2.12489e-07
1.16535e-05
-2.2998e-07
1.17442e-05
-2.65538e-07
1.17607e-05
-2.92643e-07
1.17326e-05
-3.38322e-07
1.17047e-05
-4.25248e-07
1.16959e-05
-5.23218e-07
1.16829e-05
-5.83114e-07
1.16466e-05
-6.10548e-07
1.14948e-05
-6.46624e-07
-7.30224e-07
1.13212e-05
1.27894e-05
1.48866e-07
1.28722e-05
3.85092e-08
1.29863e-05
2.86109e-08
1.30624e-05
4.26109e-08
1.30971e-05
8.75443e-09
1.31354e-05
-1.15113e-07
1.32e-05
-2.33837e-07
1.32977e-05
-3.10215e-07
1.33958e-05
-3.28028e-07
1.34695e-05
-3.39289e-07
1.35332e-05
-3.5631e-07
1.3569e-05
-3.74085e-07
1.35368e-05
-3.93066e-07
1.34555e-05
-4.4197e-07
1.33999e-05
-5.27471e-07
1.33938e-05
-6.0452e-07
1.33322e-05
-5.84976e-07
-5.3198e-07
1.3134e-05
1.51054e-05
-7.87066e-08
1.5231e-05
-8.71091e-08
1.52619e-05
-2.28141e-09
1.52462e-05
5.82531e-08
1.51991e-05
5.58531e-08
1.51362e-05
-5.21829e-08
1.5096e-05
-1.9366e-07
1.50987e-05
-3.12892e-07
1.51509e-05
-3.80278e-07
1.52164e-05
-4.047e-07
1.5256e-05
-3.95988e-07
1.52791e-05
-3.97157e-07
1.53137e-05
-4.27668e-07
1.53513e-05
-4.79552e-07
1.53421e-05
-5.18315e-07
1.53038e-05
-5.66213e-07
1.53897e-05
-6.70855e-07
-7.07009e-07
1.55647e-05
1.77652e-05
-2.38186e-07
1.7787e-05
-1.08858e-07
1.77993e-05
-1.46525e-08
1.78213e-05
3.62846e-08
1.7843e-05
3.41316e-08
1.78136e-05
-2.27439e-08
1.7732e-05
-1.12083e-07
1.76295e-05
-2.10408e-07
1.75314e-05
-2.8211e-07
1.74658e-05
-3.39129e-07
1.74648e-05
-3.95018e-07
1.75201e-05
-4.52453e-07
1.75889e-05
-4.96457e-07
1.76498e-05
-5.40409e-07
1.77132e-05
-5.81712e-07
1.77542e-05
-6.07294e-07
1.7686e-05
-6.02621e-07
-6.16955e-07
1.7596e-05
1.77097e-05
-1.03971e-07
1.7791e-05
-1.90249e-07
1.79601e-05
-1.83698e-07
1.81618e-05
-1.65388e-07
1.83313e-05
-1.35433e-07
1.84135e-05
-1.04931e-07
1.84068e-05
-1.05375e-07
1.83483e-05
-1.51916e-07
1.82876e-05
-2.21414e-07
1.8258e-05
-3.09551e-07
1.82599e-05
-3.96862e-07
1.8276e-05
-4.6857e-07
1.8291e-05
-5.11472e-07
1.82848e-05
-5.34229e-07
1.82353e-05
-5.32202e-07
1.81472e-05
-5.19128e-07
1.80466e-05
-5.02034e-07
-4.7943e-07
1.79091e-05
1.56337e-05
-1.84334e-07
1.57083e-05
-2.64775e-07
1.57676e-05
-2.42988e-07
1.58638e-05
-2.61597e-07
1.6015e-05
-2.86717e-07
1.6201e-05
-2.90881e-07
1.63557e-05
-2.60102e-07
1.6443e-05
-2.39222e-07
1.64757e-05
-2.54095e-07
1.64701e-05
-3.03917e-07
1.64372e-05
-3.6396e-07
1.63889e-05
-4.2027e-07
1.63311e-05
-4.53665e-07
1.62638e-05
-4.66937e-07
1.61892e-05
-4.57581e-07
1.61063e-05
-4.36262e-07
1.60141e-05
-4.09825e-07
-3.85422e-07
1.59201e-05
1.42676e-05
-1.33667e-07
1.41751e-05
-1.72231e-07
1.41757e-05
-2.43592e-07
1.42041e-05
-2.90063e-07
1.42317e-05
-3.1428e-07
1.42591e-05
-3.18261e-07
1.42892e-05
-2.90205e-07
1.43194e-05
-2.6949e-07
1.43346e-05
-2.6925e-07
1.43205e-05
-2.89819e-07
1.42727e-05
-3.16205e-07
1.41987e-05
-3.46204e-07
1.41135e-05
-3.68532e-07
1.40327e-05
-3.86131e-07
1.39689e-05
-3.9374e-07
1.39273e-05
-3.94687e-07
1.39084e-05
-3.90871e-07
-3.82521e-07
1.39055e-05
1.25567e-05
-2.35423e-07
1.26992e-05
-3.14758e-07
1.27978e-05
-3.4218e-07
1.28725e-05
-3.64712e-07
1.29196e-05
-3.6144e-07
1.2942e-05
-3.40664e-07
1.29584e-05
-3.06601e-07
1.29804e-05
-2.91477e-07
1.30026e-05
-2.91406e-07
1.30071e-05
-2.94332e-07
1.29801e-05
-2.89223e-07
1.29216e-05
-2.87678e-07
1.28434e-05
-2.90358e-07
1.27601e-05
-3.02853e-07
1.26826e-05
-3.16268e-07
1.26185e-05
-3.30516e-07
1.25675e-05
-3.39857e-07
-3.44968e-07
1.25299e-05
1.13907e-05
-2.0963e-07
1.13743e-05
-2.9834e-07
1.14268e-05
-3.94625e-07
1.14885e-05
-4.26414e-07
1.15348e-05
-4.07746e-07
1.15698e-05
-3.75694e-07
1.1603e-05
-3.39859e-07
1.16301e-05
-3.1855e-07
1.16401e-05
-3.01367e-07
1.16309e-05
-2.85128e-07
1.16086e-05
-2.6698e-07
1.15801e-05
-2.59114e-07
1.15511e-05
-2.61362e-07
1.15252e-05
-2.76941e-07
1.14988e-05
-2.89956e-07
1.14661e-05
-2.9777e-07
1.14221e-05
-2.95839e-07
-2.90199e-07
1.13673e-05
9.97483e-06
-2.29154e-07
1.00344e-05
-3.57899e-07
1.01829e-05
-5.43187e-07
1.03424e-05
-5.8588e-07
1.04581e-05
-5.23414e-07
1.05113e-05
-4.28928e-07
1.05279e-05
-3.56468e-07
1.0531e-05
-3.21638e-07
1.05388e-05
-3.09122e-07
1.05585e-05
-3.04886e-07
1.05852e-05
-2.93649e-07
1.06093e-05
-2.83202e-07
1.06264e-05
-2.78438e-07
1.06306e-05
-2.81163e-07
1.0614e-05
-2.73378e-07
1.05709e-05
-2.54713e-07
1.05032e-05
-2.281e-07
-2.03364e-07
1.04164e-05
9.09236e-06
-3.47441e-07
9.24027e-06
-5.05813e-07
9.35935e-06
-6.62268e-07
9.43498e-06
-6.61504e-07
9.4614e-06
-5.49838e-07
9.45894e-06
-4.26463e-07
9.4502e-06
-3.47735e-07
9.44574e-06
-3.17177e-07
9.45222e-06
-3.15598e-07
9.46188e-06
-3.14549e-07
9.46234e-06
-2.94105e-07
9.44601e-06
-2.66873e-07
9.41394e-06
-2.46376e-07
9.36795e-06
-2.35173e-07
9.31061e-06
-2.16038e-07
9.24461e-06
-1.88711e-07
9.17536e-06
-1.58847e-07
-1.39167e-07
9.11116e-06
8.00578e-06
-3.32336e-07
8.20253e-06
-7.02567e-07
8.33751e-06
-7.97249e-07
8.39514e-06
-7.1913e-07
8.41123e-06
-5.65929e-07
8.44663e-06
-4.61859e-07
8.50228e-06
-4.03387e-07
8.55442e-06
-3.69322e-07
8.58202e-06
-3.43199e-07
8.57674e-06
-3.09262e-07
8.5481e-06
-2.65464e-07
8.50946e-06
-2.28237e-07
8.47098e-06
-2.079e-07
8.43429e-06
-1.98481e-07
8.39675e-06
-1.78495e-07
8.35692e-06
-1.4888e-07
8.31565e-06
-1.17574e-07
-9.80427e-08
8.27452e-06
7.17529e-06
-4.94852e-07
7.3741e-06
-9.01383e-07
7.53252e-06
-9.55662e-07
7.58797e-06
-7.74586e-07
7.58508e-06
-5.63038e-07
7.57203e-06
-4.48808e-07
7.57498e-06
-4.06338e-07
7.58969e-06
-3.84031e-07
7.6049e-06
-3.58411e-07
7.61376e-06
-3.18116e-07
7.61652e-06
-2.68228e-07
7.61147e-06
-2.23181e-07
7.59922e-06
-1.95649e-07
7.57624e-06
-1.75503e-07
7.54343e-06
-1.45691e-07
7.50362e-06
-1.09067e-07
7.4611e-06
-7.50512e-08
-5.6903e-08
7.41996e-06
6.45408e-06
-6.96069e-07
6.71866e-06
-1.16597e-06
6.82547e-06
-1.06247e-06
6.84471e-06
-7.93825e-07
6.87051e-06
-5.88844e-07
6.89672e-06
-4.75013e-07
6.90277e-06
-4.12394e-07
6.87543e-06
-3.56691e-07
6.81959e-06
-3.02566e-07
6.75211e-06
-2.50638e-07
6.69051e-06
-2.06625e-07
6.63973e-06
-1.724e-07
6.59656e-06
-1.52483e-07
6.55309e-06
-1.32037e-07
6.51048e-06
-1.03073e-07
6.46962e-06
-6.82141e-08
6.43337e-06
-3.87995e-08
-2.22683e-08
6.39874e-06
5.85439e-06
-9.60306e-07
6.03282e-06
-1.34441e-06
6.00081e-06
-1.03045e-06
5.90638e-06
-6.99396e-07
5.79933e-06
-4.81803e-07
5.67986e-06
-3.5554e-07
5.54468e-06
-2.77213e-07
5.40068e-06
-2.12694e-07
5.25973e-06
-1.6161e-07
5.13563e-06
-1.26538e-07
5.03507e-06
-1.06065e-07
4.95357e-06
-9.09058e-08
4.88154e-06
-8.0453e-08
4.81514e-06
-6.56326e-08
4.75959e-06
-4.75252e-08
4.71701e-06
-2.56332e-08
4.68903e-06
-1.08176e-08
-2.17553e-09
4.66894e-06
5.11627e-06
-1.03017e-06
4.79872e-06
-1.02686e-06
4.4025e-06
-6.34227e-07
4.05988e-06
-3.56776e-07
3.7681e-06
-1.90022e-07
3.51913e-06
-1.06571e-07
3.31103e-06
-6.91119e-08
3.14637e-06
-4.80322e-08
3.01711e-06
-3.23519e-08
2.91409e-06
-2.3516e-08
2.83029e-06
-2.22634e-08
2.76156e-06
-2.21804e-08
2.70348e-06
-2.23744e-08
2.65767e-06
-1.9823e-08
2.62635e-06
-1.61988e-08
2.6096e-06
-8.88555e-09
2.60854e-06
-9.75755e-09
-1.68863e-09
2.60805e-06
3.31491e-06
2.28805e-06
1.65382e-06
1.29705e-06
1.10702e-06
1.00045e-06
9.31341e-07
8.83309e-07
8.50957e-07
8.27441e-07
8.05178e-07
7.82997e-07
7.60623e-07
7.408e-07
7.24601e-07
7.15716e-07
7.05958e-07
7.0427e-07
-3.63334e-08
3.63334e-08
-5.81807e-08
2.18473e-08
-7.63519e-08
1.81712e-08
-9.23238e-08
1.59719e-08
-1.05727e-07
1.3403e-08
-1.16004e-07
1.02776e-08
-1.22556e-07
6.55211e-09
-1.24732e-07
2.17572e-09
-1.21893e-07
-2.83959e-09
-1.13536e-07
-8.35661e-09
-9.92972e-08
-1.42388e-08
-7.87383e-08
-2.0559e-08
-5.14134e-08
-2.73249e-08
-1.71314e-08
-3.4282e-08
2.42712e-08
-4.14025e-08
7.29036e-08
-4.86325e-08
1.2872e-07
-5.58162e-08
1.91584e-07
-6.28641e-08
2.61274e-07
-6.96902e-08
3.37485e-07
-7.6211e-08
4.19832e-07
-8.23467e-08
5.07857e-07
-8.80253e-08
6.01044e-07
-9.31871e-08
6.9883e-07
-9.77857e-08
8.00612e-07
-1.01782e-07
9.05756e-07
-1.05144e-07
1.01361e-06
-1.07858e-07
1.12354e-06
-1.09928e-07
1.2349e-06
-1.11354e-07
1.34704e-06
-1.12146e-07
1.45937e-06
-1.1233e-07
1.57132e-06
-1.11942e-07
1.68233e-06
-1.11014e-07
1.79191e-06
-1.09583e-07
1.89961e-06
-1.07697e-07
2.00501e-06
-1.05404e-07
2.10776e-06
-1.02744e-07
2.20752e-06
-9.97631e-08
2.30404e-06
-9.65144e-08
2.39708e-06
-9.30444e-08
2.48647e-06
-8.93892e-08
2.57206e-06
-8.55869e-08
2.65374e-06
-8.16823e-08
2.73145e-06
-7.77147e-08
2.80516e-06
-7.37109e-08
2.87486e-06
-6.96948e-08
2.94055e-06
-6.56961e-08
3.0023e-06
-6.17432e-08
3.06015e-06
-5.78545e-08
3.11419e-06
-5.40422e-08
3.16452e-06
-5.03216e-08
3.21122e-06
-4.67084e-08
3.25444e-06
-4.32129e-08
3.29428e-06
-3.98402e-08
3.33087e-06
-3.65953e-08
3.36436e-06
-3.34836e-08
3.39486e-06
-3.05082e-08
3.42253e-06
-2.76695e-08
3.4475e-06
-2.49671e-08
3.4699e-06
-2.24001e-08
3.48987e-06
-1.99658e-08
3.50753e-06
-1.76614e-08
3.52301e-06
-1.54848e-08
3.53645e-06
-1.34333e-08
3.54795e-06
-1.15006e-08
3.55763e-06
-9.67948e-09
3.56559e-06
-7.96681e-09
3.57196e-06
-6.36159e-09
3.57681e-06
-4.85946e-09
3.58027e-06
-3.45258e-09
3.58241e-06
-2.13797e-09
3.58333e-06
-9.29172e-10
3.58317e-06
1.60182e-10
3.58186e-06
1.31812e-09
3.57952e-06
2.33771e-09
3.57624e-06
3.27588e-09
3.5721e-06
4.14489e-09
3.56715e-06
4.95122e-09
3.56145e-06
5.70111e-09
3.55504e-06
6.40171e-09
3.54799e-06
7.05642e-09
3.54032e-06
7.6638e-09
3.5321e-06
8.22648e-09
3.52334e-06
8.75665e-09
3.51407e-06
9.26964e-09
3.50433e-06
9.74437e-09
3.49414e-06
1.01821e-08
3.48356e-06
1.05855e-08
3.4726e-06
1.09611e-08
3.46128e-06
1.13166e-08
3.44963e-06
1.1652e-08
3.43767e-06
1.19638e-08
3.42541e-06
1.22526e-08
3.41289e-06
1.25224e-08
3.40011e-06
1.27785e-08
3.38709e-06
1.30218e-08
3.37384e-06
1.32486e-08
3.36038e-06
1.34574e-08
3.34673e-06
1.36519e-08
3.33289e-06
1.38369e-08
3.31888e-06
1.40146e-08
3.3047e-06
1.41838e-08
3.29035e-06
1.43418e-08
3.27587e-06
1.44878e-08
3.26124e-06
1.46246e-08
3.24649e-06
1.47558e-08
3.2316e-06
1.48827e-08
3.2166e-06
1.50034e-08
3.20148e-06
1.51154e-08
3.18627e-06
1.52187e-08
3.17095e-06
1.53155e-08
3.15554e-06
1.5409e-08
3.14004e-06
1.54999e-08
3.12445e-06
1.55868e-08
3.10879e-06
1.56678e-08
3.09304e-06
1.57429e-08
3.07723e-06
1.58131e-08
3.06135e-06
1.58804e-08
3.0454e-06
1.59462e-08
3.02939e-06
1.60099e-08
3.01332e-06
1.60708e-08
2.9972e-06
1.6128e-08
2.98101e-06
1.61811e-08
2.96478e-06
1.62303e-08
2.94851e-06
1.62762e-08
2.93219e-06
1.63201e-08
2.91582e-06
1.63634e-08
2.89942e-06
1.64066e-08
2.88297e-06
1.6449e-08
2.86648e-06
1.64892e-08
2.84995e-06
1.65255e-08
2.8334e-06
1.6558e-08
2.81681e-06
1.65878e-08
2.80019e-06
1.66174e-08
2.78354e-06
1.6648e-08
2.76686e-06
1.66791e-08
2.75016e-06
1.67086e-08
2.73342e-06
1.67344e-08
2.71666e-06
1.67564e-08
2.69989e-06
1.67764e-08
2.68309e-06
1.67961e-08
2.66628e-06
1.68162e-08
2.64944e-06
1.68361e-08
2.63259e-06
1.68547e-08
2.61571e-06
1.68709e-08
2.59883e-06
1.68846e-08
2.58193e-06
1.68968e-08
2.56502e-06
1.69089e-08
2.5481e-06
1.69217e-08
2.53117e-06
1.6935e-08
2.51422e-06
1.6948e-08
2.49726e-06
1.69603e-08
2.48029e-06
1.69726e-08
2.4633e-06
1.69849e-08
2.4463e-06
1.69975e-08
2.42929e-06
1.70123e-08
2.41226e-06
1.70309e-08
2.39521e-06
1.70547e-08
2.37812e-06
1.70862e-08
2.36099e-06
1.71262e-08
2.34382e-06
1.71763e-08
2.32658e-06
1.72406e-08
2.30926e-06
1.73216e-08
2.29183e-06
1.74279e-08
2.27426e-06
1.75661e-08
2.25651e-06
1.77496e-08
2.23852e-06
1.79927e-08
2.22022e-06
1.83017e-08
2.20145e-06
1.87693e-08
2.18225e-06
1.91966e-08
2.16184e-06
2.04111e-08
2.14151e-06
2.03295e-08
2.11683e-06
2.46812e-08
2.0962e-06
2.06271e-08
2.06001e-06
3.61916e-08
2.04106e-06
1.89547e-08
1.9778e-06
6.32538e-08
1.95713e-06
2.06721e-08
1.82177e-06
1.35365e-07
5.96816e-08
1.76208e-06
-3.90927e-08
7.5426e-08
-6.1378e-08
4.41327e-08
-7.96098e-08
3.6403e-08
-9.56617e-08
3.20237e-08
-1.08996e-07
2.67374e-08
-1.19116e-07
2.03973e-08
-1.2518e-07
1.26168e-08
-1.26694e-07
3.68876e-09
-1.22693e-07
-6.8405e-09
-1.12722e-07
-1.83273e-08
-9.61978e-08
-3.07629e-08
-7.2748e-08
-4.40087e-08
-4.20406e-08
-5.80323e-08
-3.75886e-09
-7.25638e-08
4.23782e-08
-8.75396e-08
9.65988e-08
-1.02853e-07
1.58725e-07
-1.17942e-07
2.28649e-07
-1.32789e-07
3.06171e-07
-1.47212e-07
3.90997e-07
-1.61037e-07
4.82754e-07
-1.74103e-07
5.80991e-07
-1.86263e-07
6.85194e-07
-1.9739e-07
7.94799e-07
-2.07391e-07
9.09207e-07
-2.1619e-07
1.02779e-06
-2.23731e-07
1.14992e-06
-2.29989e-07
1.27495e-06
-2.34955e-07
1.40223e-06
-2.38637e-07
1.53115e-06
-2.41064e-07
1.66112e-06
-2.42294e-07
1.79156e-06
-2.42388e-07
1.92195e-06
-2.41401e-07
2.05177e-06
-2.39408e-07
2.18058e-06
-2.36505e-07
2.30796e-06
-2.32785e-07
2.43355e-06
-2.28328e-07
2.557e-06
-2.23214e-07
2.67802e-06
-2.17535e-07
2.79636e-06
-2.11384e-07
2.91181e-06
-2.04837e-07
3.02419e-06
-1.97967e-07
3.13335e-06
-1.90842e-07
3.23916e-06
-1.83532e-07
3.34155e-06
-1.76098e-07
3.44045e-06
-1.68595e-07
3.53582e-06
-1.61067e-07
3.62764e-06
-1.53559e-07
3.71589e-06
-1.4611e-07
3.80061e-06
-1.38755e-07
3.88181e-06
-1.31524e-07
3.95954e-06
-1.24438e-07
4.03384e-06
-1.17516e-07
4.10478e-06
-1.10778e-07
4.17242e-06
-1.0424e-07
4.23685e-06
-9.79107e-08
4.29814e-06
-9.17937e-08
4.35636e-06
-8.58966e-08
4.41162e-06
-8.02255e-08
4.464e-06
-7.47811e-08
4.5136e-06
-6.95596e-08
4.5605e-06
-6.45598e-08
4.60479e-06
-5.97821e-08
4.64658e-06
-5.52234e-08
4.68596e-06
-5.08758e-08
4.72301e-06
-4.67324e-08
4.75783e-06
-4.27895e-08
4.79052e-06
-3.90439e-08
4.82114e-06
-3.54875e-08
4.8498e-06
-3.21116e-08
4.87658e-06
-2.89114e-08
4.90153e-06
-2.58809e-08
4.92469e-06
-2.29998e-08
4.94626e-06
-2.02509e-08
4.96625e-06
-1.76592e-08
4.98474e-06
-1.52135e-08
5.0018e-06
-1.29065e-08
5.01748e-06
-1.07287e-08
5.03184e-06
-8.66792e-09
5.04496e-06
-6.71563e-09
5.05689e-06
-4.86961e-09
5.06768e-06
-3.1302e-09
5.07741e-06
-1.50095e-09
5.08618e-06
-1.00561e-11
5.0939e-06
1.54632e-09
5.10068e-06
2.96115e-09
5.10658e-06
4.28516e-09
5.11163e-06
5.53091e-09
5.11589e-06
6.70903e-09
5.11938e-06
7.82581e-09
5.12215e-06
8.882e-09
5.12423e-06
9.87713e-09
5.12567e-06
1.08184e-08
5.12648e-06
1.17123e-08
5.1267e-06
1.25609e-08
5.12635e-06
1.33646e-08
5.12548e-06
1.41228e-08
5.1241e-06
1.48377e-08
5.12223e-06
1.55154e-08
5.11991e-06
1.61606e-08
5.11715e-06
1.67748e-08
5.11398e-06
1.73583e-08
5.11041e-06
1.79114e-08
5.10646e-06
1.84359e-08
5.10215e-06
1.89347e-08
5.09749e-06
1.94106e-08
5.09251e-06
1.98644e-08
5.08722e-06
2.0296e-08
5.08163e-06
2.07057e-08
5.07575e-06
2.10952e-08
5.0696e-06
2.14676e-08
5.06318e-06
2.18249e-08
5.05652e-06
2.21679e-08
5.04961e-06
2.24957e-08
5.04247e-06
2.2808e-08
5.0351e-06
2.31058e-08
5.02753e-06
2.33915e-08
5.01974e-06
2.36676e-08
5.01175e-06
2.39353e-08
5.00357e-06
2.41939e-08
4.99519e-06
2.44429e-08
4.98664e-06
2.46813e-08
4.97791e-06
2.49098e-08
4.96901e-06
2.51298e-08
4.95995e-06
2.53429e-08
4.95071e-06
2.55508e-08
4.94132e-06
2.57543e-08
4.93178e-06
2.59538e-08
4.92208e-06
2.61486e-08
4.91223e-06
2.6338e-08
4.90223e-06
2.65209e-08
4.89209e-06
2.66976e-08
4.88181e-06
2.68701e-08
4.87139e-06
2.7041e-08
4.86082e-06
2.72116e-08
4.85012e-06
2.73813e-08
4.83928e-06
2.75477e-08
4.82831e-06
2.77089e-08
4.8172e-06
2.78649e-08
4.80596e-06
2.80184e-08
4.79458e-06
2.81719e-08
4.78307e-06
2.8326e-08
4.77143e-06
2.84798e-08
4.75965e-06
2.86316e-08
4.74774e-06
2.87803e-08
4.7357e-06
2.89261e-08
4.72353e-06
2.90711e-08
4.71122e-06
2.92177e-08
4.69877e-06
2.93669e-08
4.68619e-06
2.95183e-08
4.67347e-06
2.96707e-08
4.6606e-06
2.98243e-08
4.6476e-06
2.99795e-08
4.63444e-06
3.01376e-08
4.62114e-06
3.03005e-08
4.60768e-06
3.0471e-08
4.59406e-06
3.0652e-08
4.58027e-06
3.08469e-08
4.56629e-06
3.10606e-08
4.55212e-06
3.12966e-08
4.53774e-06
3.1559e-08
4.52312e-06
3.18571e-08
4.50825e-06
3.21997e-08
4.49307e-06
3.26027e-08
4.47755e-06
3.30835e-08
4.46163e-06
3.36717e-08
4.44523e-06
3.43928e-08
4.42823e-06
3.53002e-08
4.41055e-06
3.64555e-08
4.39187e-06
3.78715e-08
4.37215e-06
4.0132e-08
4.35087e-06
4.16086e-08
4.32696e-06
4.85919e-08
4.30297e-06
4.46175e-08
4.26695e-06
7.22075e-08
4.2438e-06
4.21094e-08
4.1755e-06
1.3155e-07
4.14659e-06
4.9584e-08
4.0274e-06
2.54556e-07
1.79556e-07
3.90753e-06
-4.63016e-08
1.21728e-07
-7.4381e-08
7.2212e-08
-9.79693e-08
5.99914e-08
-1.19182e-07
5.32367e-08
-1.37709e-07
4.52638e-08
-1.52718e-07
3.54069e-08
-1.63531e-07
2.34294e-08
-1.69369e-07
9.52673e-09
-1.69179e-07
-7.03041e-09
-1.62461e-07
-2.50452e-08
-1.48645e-07
-4.45785e-08
-1.27129e-07
-6.55249e-08
-9.75676e-08
-8.7594e-08
-5.96676e-08
-1.10464e-07
-1.32396e-08
-1.33968e-07
4.14178e-08
-1.57511e-07
1.04965e-07
-1.8149e-07
1.76876e-07
-2.04699e-07
2.56886e-07
-2.27222e-07
3.44623e-07
-2.48774e-07
4.39617e-07
-2.69098e-07
5.41326e-07
-2.87971e-07
6.49154e-07
-3.05219e-07
7.62471e-07
-3.20707e-07
8.80597e-07
-3.34316e-07
1.00283e-06
-3.45961e-07
1.12846e-06
-3.55626e-07
1.25683e-06
-3.63319e-07
1.38725e-06
-3.6906e-07
1.51909e-06
-3.729e-07
1.65171e-06
-3.74919e-07
1.78454e-06
-3.75217e-07
1.91706e-06
-3.73915e-07
2.04879e-06
-3.71144e-07
2.1793e-06
-3.67015e-07
2.30817e-06
-3.61649e-07
2.43503e-06
-3.55195e-07
2.55963e-06
-3.47806e-07
2.68169e-06
-3.39601e-07
2.80099e-06
-3.30684e-07
2.91733e-06
-3.21172e-07
3.03055e-06
-3.11193e-07
3.14057e-06
-3.00857e-07
3.24728e-06
-2.90244e-07
3.35061e-06
-2.79429e-07
3.45051e-06
-2.68495e-07
3.54697e-06
-2.57522e-07
3.63998e-06
-2.46571e-07
3.72956e-06
-2.35689e-07
3.81572e-06
-2.24917e-07
3.89849e-06
-2.143e-07
3.97793e-06
-2.03877e-07
4.0541e-06
-1.93678e-07
4.12704e-06
-1.83724e-07
4.19683e-06
-1.74032e-07
4.26354e-06
-1.64615e-07
4.32723e-06
-1.55489e-07
4.388e-06
-1.46667e-07
4.44593e-06
-1.38153e-07
4.50109e-06
-1.29944e-07
4.55357e-06
-1.22039e-07
4.60345e-06
-1.14441e-07
4.65082e-06
-1.07155e-07
4.69577e-06
-1.00173e-07
4.73838e-06
-9.34847e-08
4.77873e-06
-8.70817e-08
4.81691e-06
-8.09627e-08
4.85299e-06
-7.51236e-08
4.88705e-06
-6.95538e-08
4.91918e-06
-6.42406e-08
4.94945e-06
-5.9176e-08
4.97792e-06
-5.43519e-08
5.00468e-06
-4.97595e-08
5.02981e-06
-4.53871e-08
5.05338e-06
-4.12288e-08
5.07545e-06
-3.72796e-08
5.09607e-06
-3.35322e-08
5.11532e-06
-2.99754e-08
5.13325e-06
-2.65961e-08
5.14992e-06
-2.33853e-08
5.16539e-06
-2.03399e-08
5.17972e-06
-1.74579e-08
5.19295e-06
-1.47316e-08
5.20508e-06
-1.21391e-08
5.21627e-06
-9.64395e-09
5.22651e-06
-7.28654e-09
5.23585e-06
-5.05546e-09
5.24433e-06
-2.94547e-09
5.25199e-06
-9.53437e-10
5.25888e-06
9.41193e-10
5.26502e-06
2.73599e-09
5.27047e-06
4.43049e-09
5.27524e-06
6.04619e-09
5.27937e-06
7.58069e-09
5.2829e-06
9.03162e-09
5.28586e-06
1.04067e-08
5.28827e-06
1.171e-08
5.29017e-06
1.2944e-08
5.29157e-06
1.41136e-08
5.29251e-06
1.52237e-08
5.293e-06
1.62781e-08
5.29308e-06
1.72799e-08
5.29276e-06
1.82323e-08
5.29206e-06
1.91381e-08
5.29099e-06
1.99994e-08
5.28959e-06
2.08174e-08
5.28786e-06
2.15935e-08
5.28582e-06
2.23301e-08
5.2835e-06
2.3031e-08
5.28089e-06
2.37001e-08
5.27802e-06
2.43398e-08
5.2749e-06
2.4951e-08
5.27153e-06
2.55329e-08
5.26794e-06
2.60858e-08
5.26414e-06
2.66122e-08
5.26013e-06
2.71155e-08
5.25592e-06
2.75994e-08
5.25152e-06
2.80661e-08
5.24694e-06
2.85154e-08
5.24219e-06
2.89457e-08
5.23727e-06
2.93565e-08
5.23221e-06
2.97489e-08
5.22699e-06
3.0126e-08
5.22163e-06
3.0491e-08
5.21613e-06
3.08458e-08
5.21049e-06
3.11903e-08
5.20472e-06
3.1524e-08
5.19882e-06
3.18466e-08
5.19281e-06
3.21591e-08
5.18669e-06
3.24623e-08
5.18045e-06
3.2757e-08
5.17411e-06
3.30443e-08
5.16765e-06
3.33252e-08
5.16109e-06
3.3601e-08
5.15443e-06
3.38729e-08
5.14767e-06
3.41403e-08
5.14082e-06
3.4402e-08
5.13387e-06
3.46577e-08
5.12682e-06
3.49084e-08
5.11969e-06
3.51561e-08
5.11246e-06
3.54025e-08
5.10513e-06
3.56477e-08
5.09772e-06
3.58909e-08
5.09022e-06
3.6131e-08
5.08264e-06
3.63672e-08
5.07496e-06
3.6601e-08
5.0672e-06
3.68354e-08
5.05934e-06
3.70726e-08
5.0514e-06
3.73126e-08
5.04336e-06
3.75543e-08
5.03523e-06
3.77979e-08
5.02701e-06
3.80441e-08
5.0187e-06
3.82943e-08
5.01029e-06
3.85506e-08
5.00177e-06
3.88169e-08
4.99315e-06
3.90952e-08
4.98441e-06
3.93893e-08
4.97555e-06
3.9705e-08
4.96656e-06
4.00481e-08
4.95743e-06
4.04261e-08
4.94815e-06
4.08469e-08
4.93868e-06
4.13235e-08
4.92901e-06
4.18714e-08
4.9191e-06
4.25101e-08
4.90891e-06
4.32748e-08
4.8984e-06
4.41845e-08
4.88744e-06
4.53453e-08
4.87608e-06
4.66681e-08
4.86389e-06
4.86383e-08
4.85134e-06
5.04279e-08
4.83694e-06
5.45291e-08
4.82276e-06
5.57929e-08
4.80429e-06
6.70607e-08
4.7872e-06
6.17064e-08
4.762e-06
9.74035e-08
4.73655e-06
6.7556e-08
4.70212e-06
1.65981e-07
4.65082e-06
1.00883e-07
4.61251e-06
2.9287e-07
2.79732e-07
4.51234e-06
-5.61981e-08
1.77926e-07
-9.33224e-08
1.09336e-07
-1.25251e-07
9.19199e-08
-1.54826e-07
8.28113e-08
-1.81339e-07
7.17768e-08
-2.03827e-07
5.78954e-08
-2.21481e-07
4.10832e-08
-2.33553e-07
2.15987e-08
-2.39186e-07
-1.39681e-09
-2.37246e-07
-2.69859e-08
-2.27126e-07
-5.46986e-08
-2.08223e-07
-8.44272e-08
-1.80051e-07
-1.15767e-07
-1.42382e-07
-1.48132e-07
-9.48864e-08
-1.81463e-07
-3.75861e-08
-2.14811e-07
2.88167e-08
-2.47892e-07
1.04786e-07
-2.80668e-07
1.89732e-07
-3.12169e-07
2.83115e-07
-3.42157e-07
3.84305e-07
-3.70288e-07
4.92605e-07
-3.96271e-07
6.07258e-07
-4.19872e-07
7.27475e-07
-4.40924e-07
8.52453e-07
-4.59294e-07
9.81401e-07
-4.74909e-07
1.11353e-06
-4.87757e-07
1.24805e-06
-4.97839e-07
1.3842e-06
-5.05212e-07
1.52131e-06
-5.10009e-07
1.65876e-06
-5.12363e-07
1.79593e-06
-5.12396e-07
1.93229e-06
-5.10269e-07
2.06732e-06
-5.06177e-07
2.20062e-06
-5.0031e-07
2.33182e-06
-4.92853e-07
2.46062e-06
-4.83994e-07
2.58672e-06
-4.73906e-07
2.70987e-06
-4.62755e-07
2.8299e-06
-4.50714e-07
2.94668e-06
-4.37953e-07
3.0601e-06
-4.24614e-07
3.17006e-06
-4.10808e-07
3.27646e-06
-3.96653e-07
3.37931e-06
-3.82276e-07
3.4786e-06
-3.67787e-07
3.57434e-06
-3.53258e-07
3.66651e-06
-3.38747e-07
3.75516e-06
-3.24331e-07
3.84033e-06
-3.10086e-07
3.92209e-06
-2.96062e-07
4.0005e-06
-2.82285e-07
4.0756e-06
-2.68783e-07
4.14748e-06
-2.55598e-07
4.21621e-06
-2.42762e-07
4.28188e-06
-2.3029e-07
4.34458e-06
-2.18184e-07
4.40437e-06
-2.06457e-07
4.46134e-06
-1.95126e-07
4.51559e-06
-1.84195e-07
4.56721e-06
-1.73655e-07
4.61627e-06
-1.63506e-07
4.66287e-06
-1.5375e-07
4.70708e-06
-1.44385e-07
4.749e-06
-1.35401e-07
4.7887e-06
-1.26786e-07
4.82627e-06
-1.18535e-07
4.86179e-06
-1.10643e-07
4.89534e-06
-1.031e-07
4.92699e-06
-9.58916e-08
4.95682e-06
-8.90045e-08
4.9849e-06
-8.24319e-08
5.0113e-06
-7.61654e-08
5.03611e-06
-7.01919e-08
5.05938e-06
-6.44977e-08
5.08117e-06
-5.9074e-08
5.10155e-06
-5.39133e-08
5.12058e-06
-4.90048e-08
5.13832e-06
-4.43346e-08
5.15483e-06
-3.9891e-08
5.17015e-06
-3.56672e-08
5.18435e-06
-3.16558e-08
5.19746e-06
-2.78444e-08
5.20954e-06
-2.42192e-08
5.22066e-06
-2.07651e-08
5.23086e-06
-1.7482e-08
5.24017e-06
-1.43671e-08
5.24864e-06
-1.14129e-08
5.2563e-06
-8.61139e-09
5.26319e-06
-5.95039e-09
5.26935e-06
-3.42908e-09
5.27483e-06
-1.04844e-09
5.27964e-06
1.23694e-09
5.28382e-06
3.39906e-09
5.28741e-06
5.4441e-09
5.29043e-06
7.38503e-09
5.29292e-06
9.22506e-09
5.29489e-06
1.09692e-08
5.29638e-06
1.26235e-08
5.29741e-06
1.41928e-08
5.29801e-06
1.56827e-08
5.29819e-06
1.70988e-08
5.29798e-06
1.8446e-08
5.29739e-06
1.97272e-08
5.29644e-06
2.09443e-08
5.29516e-06
2.20983e-08
5.29356e-06
2.31919e-08
5.29166e-06
2.423e-08
5.28948e-06
2.5219e-08
5.28701e-06
2.61637e-08
5.28429e-06
2.70661e-08
5.28131e-06
2.79256e-08
5.2781e-06
2.87417e-08
5.27467e-06
2.95157e-08
5.27103e-06
3.0252e-08
5.26719e-06
3.0957e-08
5.26315e-06
3.16351e-08
5.25893e-06
3.22877e-08
5.25454e-06
3.29134e-08
5.24997e-06
3.35103e-08
5.24525e-06
3.40775e-08
5.24038e-06
3.4619e-08
5.23536e-06