/*--------------------------------*- C++ -*----------------------------------*\
| =========                 |                                                 |
| \\      /  F ield         | OpenFOAM: The Open Source CFD Toolbox           |
|  \\    /   O peration     | Version:  2.1.x                                 |
|   \\  /    A nd           | Web:      www.OpenFOAM.org                      |
|    \\/     M anipulation  |                                                 |
\*---------------------------------------------------------------------------*/
FoamFile
{
    version     2.0;
    format      ascii;
    class       volScalarField;
    location    "0.003";
    object      pMean;
}
// * * * * * * * * * * * * * * * * * * * * * * * * * * * * * * * * * * * * * //

dimensions      [0 2 -2 0 0 0 0];

internalField   nonuniform List<scalar> 
12225
(
327.175
308.764
300.859
297.666
295.186
292.7
289.931
287.065
284.028
281.065
277.712
274.266
270.298
266.104
261.054
254.018
245.988
227.164
324.196
308.519
300.951
297.73
295.218
292.702
289.916
287.052
284.017
281.052
277.741
274.229
270.367
266.092
261.088
254.713
246.182
236.15
322.302
308.734
301.474
298.018
295.379
292.809
289.982
287.073
284.054
281.065
277.816
274.24
270.501
266.166
261.491
255.51
248.743
241.209
320.699
308.902
302.019
298.366
295.622
293.011
290.147
287.205
284.193
281.192
277.978
274.468
270.792
266.722
262.262
257.107
251.485
245.64
319.192
308.951
302.54
298.743
295.91
293.231
290.391
287.395
284.415
281.409
278.263
274.88
271.356
267.555
263.443
258.976
254.326
249.896
317.71
308.862
302.988
299.139
296.227
293.504
290.687
287.705
284.737
281.735
278.646
275.386
272.041
268.496
264.764
260.891
257.064
253.533
316.224
308.633
303.325
299.529
296.52
293.76
290.951
288.012
285.059
282.102
279.082
275.979
272.828
269.576
266.235
262.9
259.739
256.889
315.36
308.405
303.549
299.854
296.803
294.003
291.21
288.308
285.388
282.477
279.527
276.551
273.586
270.595
267.564
264.617
261.891
259.486
314.785
308.203
303.702
300.144
297.073
294.247
291.456
288.603
285.736
282.871
279.988
277.127
274.331
271.563
268.796
266.142
263.733
261.664
314.063
307.958
303.808
300.406
297.359
294.518
291.738
288.938
286.129
283.337
280.554
277.823
275.202
272.663
270.169
267.8
265.681
263.882
313.69
307.781
303.9
300.694
297.711
294.867
292.102
289.347
286.614
283.92
281.253
278.665
276.225
273.914
271.676
269.56
267.69
266.116
313.268
307.583
303.952
300.945
298.062
295.251
292.509
289.821
287.184
284.599
282.067
279.637
277.369
275.266
273.28
271.412
269.747
268.346
312.809
307.445
304.034
301.212
298.458
295.713
293.017
290.398
287.856
285.391
283.01
280.749
278.659
276.754
274.98
273.317
271.832
270.587
312.877
307.492
304.2
301.524
298.891
296.234
293.606
291.066
288.635
286.309
284.083
281.985
280.066
278.337
276.748
275.267
273.936
272.813
312.79
307.528
304.389
301.859
299.37
296.833
294.3
291.86
289.55
287.352
285.263
283.325
281.576
280.005
278.564
277.232
276.031
275.011
313.111
307.889
304.791
302.346
299.955
297.512
295.079
292.746
290.553
288.483
286.538
284.749
283.143
281.71
280.403
279.191
278.092
277.153
313.348
308.22
305.214
302.85
300.565
298.241
295.913
293.685
291.606
289.66
287.839
286.173
284.69
283.371
282.161
281.033
280.009
279.124
314.087
308.899
305.883
303.515
301.251
298.981
296.732
294.587
292.595
290.747
289.028
287.463
286.073
284.834
283.696
282.631
281.657
280.808
314.799
309.54
306.478
304.095
301.834
299.598
297.399
295.31
293.384
291.606
289.957
288.456
287.124
285.939
284.849
283.822
282.877
282.048
315.524
310.169
307.057
304.641
302.344
300.079
297.881
295.829
293.955
292.228
290.623
289.165
287.875
286.729
285.671
284.671
283.747
282.932
315.852
310.683
307.571
305.07
302.69
300.38
298.191
296.179
294.349
292.66
291.09
289.665
288.408
287.293
286.259
285.279
284.37
283.568
316.75
311.387
308.086
305.41
302.904
300.547
298.371
296.398
294.605
292.946
291.402
290.002
288.77
287.676
286.661
285.697
284.802
284.011
317.568
312.058
308.515
305.607
302.977
300.592
298.446
296.515
294.754
293.119
291.599
290.223
289.01
287.931
286.927
285.973
285.091
284.314
318.961
312.863
308.854
305.673
302.933
300.545
298.443
296.552
294.817
293.201
291.703
290.352
289.159
288.088
287.09
286.145
285.275
284.51
320.311
313.613
309.072
305.592
302.768
300.417
298.376
296.529
294.821
293.228
291.757
290.428
289.246
288.177
287.18
286.242
285.385
284.633
321.54
314.263
309.127
305.36
302.498
300.215
298.239
296.436
294.761
293.2
291.76
290.455
289.279
288.205
287.206
286.275
285.43
284.69
323.15
314.855
309.017
305.016
302.178
299.968
298.052
296.301
294.672
293.154
291.747
290.459
289.284
288.204
287.203
286.278
285.439
284.7
325.18
315.333
308.712
304.582
301.851
299.721
297.855
296.149
294.567
293.091
291.716
290.442
289.267
288.181
287.179
286.254
285.411
284.659
327.227
315.641
308.155
304.011
301.456
299.48
297.722
296.082
294.537
293.08
291.713
290.441
289.263
288.174
287.17
286.238
285.375
284.575
330.521
316.453
308.209
303.932
301.346
299.4
297.688
296.082
294.553
293.104
291.74
290.468
289.289
288.2
287.195
286.264
285.404
284.613
266.228
266.24
266.259
266.286
266.319
266.36
266.408
266.461
266.519
266.581
266.646
266.714
266.781
266.848
266.912
266.972
267.026
267.073
267.111
267.137
267.152
267.152
267.136
267.104
267.054
266.985
266.895
266.785
266.654
266.5
266.324
266.126
265.905
265.662
265.396
265.109
264.8
264.469
264.119
263.747
263.357
262.947
262.519
262.074
261.611
261.131
260.636
260.125
259.6
259.06
258.507
257.941
257.361
256.77
256.167
255.552
254.926
254.29
253.643
252.986
252.32
251.644
250.959
250.264
249.561
248.849
248.129
247.401
246.664
245.919
245.166
244.406
243.638
242.862
242.078
241.287
240.488
239.682
238.869
238.048
237.22
236.384
235.541
234.691
233.834
232.969
232.097
231.217
230.33
229.436
228.535
227.625
226.709
225.785
224.853
223.914
222.967
222.013
221.051
220.081
219.103
218.117
217.124
216.123
215.113
214.096
213.07
212.036
210.994
209.944
208.885
207.818
206.743
205.659
204.566
203.465
202.355
201.236
200.108
198.972
197.826
196.672
195.508
194.335
193.152
191.961
190.76
189.549
188.329
187.099
185.859
184.61
183.351
182.082
180.802
179.513
178.213
176.904
175.583
174.253
172.912
171.56
170.197
168.824
167.44
166.045
164.639
163.222
161.794
160.354
158.904
157.441
155.968
154.482
152.985
151.476
149.956
148.424
146.879
145.323
143.755
142.176
140.584
138.981
137.366
135.739
134.102
132.455
130.797
129.131
127.457
125.777
124.093
122.413
120.733
119.081
117.435
115.883
114.371
113.126
266.148
266.16
266.181
266.209
266.245
266.288
266.338
266.395
266.457
266.523
266.593
266.664
266.737
266.808
266.877
266.942
267.001
267.052
267.094
267.124
267.142
267.146
267.134
267.104
267.056
266.989
266.901
266.793
266.662
266.509
266.333
266.135
265.914
265.671
265.405
265.117
264.808
264.477
264.125
263.753
263.362
262.951
262.523
262.076
261.612
261.132
260.636
260.125
259.599
259.058
258.504
257.937
257.358
256.766
256.162
255.547
254.921
254.284
253.637
252.98
252.313
251.637
250.952
250.257
249.554
248.842
248.122
247.393
246.657
245.912
245.159
244.398
243.63
242.854
242.071
241.28
240.481
239.676
238.862
238.042
237.213
236.378
235.535
234.685
233.828
232.963
232.091
231.212
230.325
229.431
228.529
227.62
226.704
225.78
224.848
223.909
222.962
222.008
221.046
220.076
219.098
218.113
217.119
216.118
215.109
214.091
213.066
212.032
210.99
209.94
208.881
207.814
206.739
205.655
204.562
203.461
202.351
201.232
200.104
198.968
197.822
196.668
195.504
194.331
193.148
191.957
190.756
189.545
188.325
187.095
185.856
184.606
183.347
182.078
180.799
179.509
178.21
176.9
175.58
174.249
172.908
171.556
170.194
168.821
167.437
166.042
164.636
163.219
161.791
160.351
158.9
157.438
155.964
154.479
152.982
151.473
149.953
148.42
146.876
145.32
143.752
142.172
140.581
138.977
137.362
135.736
134.099
132.451
130.793
129.127
127.452
125.772
124.088
122.406
120.725
119.067
117.421
115.838
114.296
112.812
265.987
266
266.022
266.054
266.094
266.142
266.198
266.261
266.33
266.405
266.483
266.564
266.645
266.726
266.805
266.879
266.947
267.007
267.057
267.096
267.121
267.131
267.125
267.101
267.057
266.994
266.909
266.803
266.674
266.522
266.348
266.15
265.929
265.686
265.419
265.131
264.82
264.488
264.135
263.762
263.37
262.958
262.528
262.08
261.615
261.134
260.637
260.124
259.597
259.056
258.501
257.934
257.353
256.761
256.156
255.541
254.914
254.277
253.63
252.973
252.306
251.63
250.944
250.25
249.546
248.834
248.114
247.386
246.649
245.904
245.151
244.391
243.623
242.847
242.064
241.273
240.474
239.669
238.855
238.035
237.207
236.371
235.529
234.679
233.822
232.957
232.085
231.206
230.319
229.425
228.524
227.615
226.698
225.774
224.843
223.904
222.957
222.003
221.041
220.071
219.094
218.108
217.115
216.113
215.104
214.087
213.061
212.028
210.986
209.936
208.877
207.81
206.735
205.651
204.558
203.457
202.347
201.228
200.101
198.964
197.818
196.664
195.5
194.327
193.145
191.953
190.752
189.542
188.322
187.092
185.852
184.603
183.344
182.075
180.795
179.506
178.207
176.897
175.577
174.246
172.905
171.553
170.191
168.818
167.434
166.039
164.633
163.216
161.788
160.348
158.897
157.435
155.961
154.476
152.979
151.47
149.95
148.418
146.873
145.317
143.749
142.169
140.578
138.974
137.359
135.733
134.095
132.447
130.789
129.122
127.446
125.765
124.079
122.395
120.712
119.043
117.391
115.768
114.185
112.592
265.74
265.755
265.781
265.817
265.863
265.919
265.984
266.057
266.138
266.225
266.316
266.411
266.507
266.602
266.695
266.784
266.866
266.94
267.003
267.053
267.09
267.11
267.113
267.097
267.06
267.003
266.923
266.82
266.695
266.545
266.372
266.175
265.955
265.711
265.444
265.154
264.843
264.509
264.155
263.78
263.386
262.973
262.541
262.091
261.625
261.142
260.643
260.13
259.601
259.059
258.503
257.934
257.353
256.76
256.155
255.538
254.911
254.274
253.626
252.968
252.301
251.624
250.938
250.244
249.54
248.828
248.108
247.379
246.642
245.897
245.145
244.384
243.616
242.84
242.057
241.266
240.468
239.662
238.849
238.028
237.201
236.365
235.523
234.673
233.816
232.951
232.08
231.2
230.314
229.42
228.518
227.61
226.693
225.769
224.838
223.899
222.953
221.998
221.036
220.067
219.089
218.104
217.11
216.109
215.1
214.083
213.057
212.024
210.982
209.932
208.873
207.806
206.731
205.647
204.554
203.453
202.343
201.225
200.097
198.96
197.815
196.66
195.497
194.324
193.142
191.95
190.749
189.538
188.318
187.089
185.849
184.6
183.341
182.072
180.792
179.503
178.204
176.894
175.574
174.243
172.902
171.55
170.188
168.815
167.431
166.036
164.63
163.213
161.785
160.346
158.895
157.432
155.959
154.473
152.976
151.468
149.947
148.415
146.871
145.315
143.746
142.166
140.575
138.971
137.356
135.729
134.091
132.443
130.784
129.116
127.439
125.757
124.069
122.38
120.693
119.013
117.347
115.692
114.063
112.39
265.402
265.419
265.449
265.491
265.546
265.612
265.689
265.777
265.873
265.977
266.087
266.201
266.317
266.433
266.546
266.655
266.757
266.849
266.93
266.997
267.049
267.083
267.098
267.093
267.066
267.016
266.943
266.846
266.724
266.578
266.407
266.211
265.991
265.747
265.48
265.189
264.876
264.541
264.184
263.808
263.411
262.996
262.562
262.11
261.642
261.157
260.656
260.141
259.611
259.067
258.51
257.939
257.357
256.762
256.156
255.539
254.911
254.273
253.624
252.966
252.298
251.621
250.935
250.24
249.536
248.823
248.103
247.374
246.637
245.892
245.139
244.379
243.611
242.835
242.051
241.26
240.462
239.656
238.843
238.023
237.195
236.36
235.517
234.668
233.81
232.946
232.074
231.195
230.309
229.415
228.513
227.605
226.688
225.765
224.833
223.894
222.948
221.994
221.032
220.062
219.085
218.099
217.106
216.105
215.096
214.079
213.053
212.02
210.978
209.928
208.869
207.802
206.727
205.643
204.551
203.45
202.34
201.221
200.094
198.957
197.812
196.657
195.493
194.321
193.138
191.947
190.746
189.535
188.315
187.086
185.846
184.597
183.338
182.069
180.789
179.5
178.201
176.891
175.571
174.24
172.899
171.548
170.185
168.812
167.428
166.033
164.628
163.211
161.782
160.343
158.892
157.43
155.956
154.471
152.974
151.465
149.945
148.412
146.868
145.312
143.744
142.164
140.572
138.968
137.352
135.725
134.087
132.438
130.778
129.109
127.431
125.746
124.056
122.362
120.669
118.977
117.296
115.61
113.938
112.207
264.962
264.982
265.017
265.067
265.133
265.212
265.306
265.412
265.529
265.656
265.79
265.929
266.071
266.214
266.354
266.489
266.617
266.734
266.838
266.927
266.998
267.05
267.081
267.09
267.075
267.035
266.97
266.88
266.763
266.621
266.452
266.258
266.038
265.794
265.526
265.234
264.919
264.582
264.223
263.844
263.445
263.027
262.591
262.136
261.665
261.178
260.676
260.158
259.626
259.08
258.521
257.949
257.365
256.769
256.162
255.543
254.914
254.275
253.626
252.967
252.298
251.62
250.933
250.238
249.533
248.821
248.1
247.37
246.633
245.888
245.135
244.374
243.606
242.83
242.047
241.256
240.457
239.651
238.838
238.018
237.19
236.355
235.512
234.663
233.806
232.941
232.069
231.19
230.304
229.41
228.509
227.6
226.684
225.76
224.829
223.89
222.944
221.989
221.028
220.058
219.081
218.095
217.102
216.101
215.092
214.075
213.049
212.016
210.974
209.924
208.866
207.799
206.724
205.64
204.547
203.446
202.336
201.218
200.09
198.954
197.808
196.654
195.49
194.317
193.135
191.944
190.743
189.532
188.312
187.083
185.843
184.594
183.335
182.066
180.787
179.497
178.198
176.888
175.568
174.238
172.897
171.545
170.183
168.81
167.426
166.031
164.625
163.208
161.78
160.34
158.89
157.427
155.954
154.468
152.971
151.463
149.942
148.41
146.865
145.309
143.741
142.16
140.568
138.964
137.348
135.721
134.082
132.432
130.772
129.101
127.422
125.734
124.04
122.341
120.641
118.938
117.238
115.527
113.814
112.045
264.406
264.429
264.471
264.531
264.61
264.707
264.821
264.95
265.094
265.249
265.414
265.585
265.762
265.938
266.113
266.282
266.442
266.59
266.724
266.84
266.936
267.01
267.061
267.086
267.086
267.058
267.004
266.921
266.811
266.673
266.507
266.315
266.096
265.852
265.582
265.288
264.971
264.632
264.271
263.889
263.487
263.066
262.626
262.169
261.696
261.206
260.7
260.18
259.646
259.098
258.537
257.963
257.377
256.779
256.171
255.551
254.921
254.28
253.63
252.97
252.3
251.621
250.934
250.238
249.533
248.82
248.098
247.368
246.631
245.885
245.132
244.371
243.603
242.826
242.043
241.252
240.453
239.647
238.834
238.014
237.186
236.351
235.508
234.658
233.801
232.937
232.065
231.186
230.299
229.406
228.504
227.596
226.68
225.756
224.825
223.886
222.939
221.985
221.024
220.054
219.077
218.091
217.098
216.097
215.088
214.071
213.046
212.012
210.97
209.92
208.862
207.795
206.72
205.636
204.544
203.443
202.333
201.214
200.087
198.951
197.805
196.651
195.487
194.314
193.132
191.941
190.74
189.529
188.309
187.08
185.84
184.591
183.332
182.063
180.784
179.495
178.195
176.886
175.565
174.235
172.894
171.542
170.18
168.807
167.423
166.028
164.622
163.205
161.777
160.338
158.887
157.425
155.951
154.466
152.969
151.46
149.939
148.407
146.862
145.306
143.738
142.157
140.565
138.96
137.344
135.716
134.077
132.426
130.764
129.092
127.411
125.72
124.023
122.318
120.61
118.895
117.177
115.443
113.696
111.897
263.715
263.743
263.792
263.864
263.96
264.077
264.216
264.374
264.55
264.741
264.944
265.157
265.375
265.595
265.813
266.025
266.226
266.413
266.583
266.732
266.859
266.96
267.035
267.081
267.099
267.086
267.043
266.97
266.867
266.734
266.572
266.381
266.163
265.918
265.648
265.352
265.033
264.69
264.326
263.941
263.536
263.111
262.669
262.208
261.731
261.239
260.73
260.207
259.67
259.12
258.556
257.981
257.393
256.793
256.183
255.561
254.93
254.288
253.636
252.975
252.304
251.625
250.937
250.239
249.534
248.82
248.098
247.368
246.63
245.884
245.13
244.369
243.6
242.824
242.04
241.249
240.45
239.644
238.831
238.01
237.182
236.347
235.504
234.654
233.797
232.933
232.061
231.182
230.295
229.402
228.5
227.592
226.676
225.752
224.821
223.882
222.936
221.982
221.02
220.05
219.073
218.088
217.095
216.094
215.084
214.067
213.042
212.009
210.967
209.917
208.859
207.792
206.717
205.633
204.541
203.44
202.33
201.211
200.084
198.948
197.802
196.648
195.484
194.311
193.129
191.938
190.737
189.526
188.306
187.077
185.837
184.588
183.329
182.06
180.781
179.492
178.193
176.883
175.563
174.232
172.891
171.54
170.178
168.805
167.421
166.026
164.62
163.203
161.775
160.335
158.885
157.422
155.949
154.463
152.966
151.457
149.937
148.404
146.86
145.303
143.735
142.154
140.561
138.957
137.34
135.711
134.071
132.419
130.756
129.083
127.399
125.705
124.003
122.293
120.576
118.849
117.115
115.361
113.586
111.761
262.862
262.894
262.953
263.039
263.154
263.296
263.464
263.656
263.871
264.106
264.357
264.62
264.892
265.167
265.439
265.704
265.957
266.193
266.408
266.599
266.763
266.898
267.001
267.073
267.111
267.116
267.087
267.025
266.93
266.803
266.645
266.456
266.239
265.994
265.721
265.424
265.102
264.756
264.389
264
263.591
263.163
262.717
262.253
261.772
261.276
260.765
260.239
259.699
259.146
258.58
258.002
257.412
256.81
256.198
255.575
254.941
254.298
253.645
252.983
252.311
251.63
250.941
250.243
249.537
248.822
248.099
247.369
246.63
245.884
245.13
244.368
243.599
242.822
242.038
241.246
240.448
239.641
238.828
238.007
237.179
236.343
235.501
234.651
233.794
232.929
232.057
231.178
230.292
229.398
228.497
227.588
226.672
225.748
224.817
223.878
222.932
221.978
221.016
220.047
219.069
218.084
217.091
216.09
215.081
214.064
213.039
212.005
210.964
209.914
208.855
207.789
206.714
205.63
204.537
203.436
202.327
201.208
200.081
198.945
197.799
196.645
195.481
194.308
193.126
191.935
190.734
189.524
188.304
187.074
185.835
184.586
183.327
182.058
180.779
179.489
178.19
176.88
175.56
174.23
172.889
171.537
170.175
168.802
167.418
166.023
164.618
163.201
161.772
160.333
158.882
157.42
155.946
154.461
152.964
151.455
149.934
148.402
146.857
145.3
143.732
142.151
140.558
138.953
137.335
135.706
134.065
132.412
130.748
129.072
127.386
125.689
123.983
122.266
120.541
118.803
117.053
115.281
113.482
111.636
261.813
261.851
261.919
262.021
262.156
262.325
262.526
262.759
263.02
263.307
263.615
263.941
264.279
264.623
264.965
265.298
265.616
265.914
266.186
266.429
266.639
266.815
266.954
267.055
267.119
267.145
267.132
267.083
266.998
266.878
266.724
266.538
266.321
266.076
265.802
265.502
265.177
264.828
264.457
264.064
263.651
263.219
262.769
262.301
261.817
261.318
260.803
260.274
259.731
259.175
258.606
258.026
257.433
256.83
256.215
255.59
254.955
254.31
253.656
252.992
252.319
251.637
250.947
250.248
249.541
248.826
248.102
247.371
246.632
245.885
245.13
244.368
243.598
242.821
242.037
241.245
240.446
239.639
238.826
238.005
237.176
236.341
235.498
234.648
233.791
232.926
232.054
231.175
230.288
229.395
228.493
227.585
226.668
225.745
224.814
223.875
222.928
221.974
221.013
220.043
219.066
218.081
217.088
216.087
215.078
214.061
213.035
212.002
210.96
209.911
208.852
207.786
206.71
205.627
204.534
203.433
202.324
201.205
200.078
198.942
197.796
196.642
195.478
194.306
193.124
191.932
190.731
189.521
188.301
187.071
185.832
184.583
183.324
182.055
180.776
179.487
178.187
176.878
175.558
174.227
172.886
171.535
170.173
168.8
167.416
166.021
164.615
163.198
161.77
160.331
158.88
157.418
155.944
154.458
152.961
151.452
149.932
148.399
146.854
145.297
143.728
142.147
140.554
138.949
137.331
135.701
134.059
132.405
130.739
129.062
127.373
125.673
123.961
122.239
120.505
118.756
116.992
115.204
113.385
111.521
260.507
260.551
260.63
260.747
260.903
261.1
261.336
261.612
261.925
262.273
262.652
263.056
263.479
263.912
264.345
264.768
265.172
265.55
265.895
266.205
266.474
266.701
266.884
267.023
267.118
267.169
267.176
267.143
267.069
266.956
266.808
266.625
266.409
266.162
265.887
265.584
265.256
264.904
264.529
264.132
263.715
263.279
262.825
262.354
261.866
261.362
260.844
260.312
259.766
259.207
258.636
258.052
257.457
256.852
256.235
255.608
254.971
254.325
253.669
253.003
252.329
251.646
250.955
250.255
249.547
248.83
248.106
247.374
246.634
245.887
245.131
244.369
243.599
242.821
242.036
241.244
240.445
239.638
238.824
238.003
237.174
236.339
235.496
234.645
233.788
232.923
232.051
231.172
230.286
229.392
228.49
227.582
226.665
225.742
224.81
223.872
222.925
221.971
221.009
220.04
219.063
218.078
217.085
216.084
215.075
214.057
213.032
211.999
210.957
209.907
208.849
207.783
206.707
205.624
204.531
203.431
202.321
201.202
200.075
198.939
197.793
196.639
195.476
194.303
193.121
191.929
190.729
189.518
188.298
187.069
185.83
184.58
183.321
182.052
180.774
179.484
178.185
176.875
175.555
174.225
172.884
171.533
170.17
168.797
167.414
166.019
164.613
163.196
161.768
160.328
158.878
157.415
155.941
154.456
152.959
151.45
149.929
148.396
146.851
145.294
143.725
142.144
140.55
138.944
137.326
135.696
134.053
132.397
130.73
129.05
127.359
125.655
123.939
122.211
120.469
118.71
116.933
115.13
113.295
111.415
258.894
258.945
259.028
259.154
259.324
259.54
259.804
260.119
260.482
260.896
261.356
261.856
262.387
262.94
263.497
264.044
264.565
265.053
265.498
265.896
266.243
266.537
266.778
266.965
267.099
267.181
267.213
267.198
267.138
267.035
266.893
266.713
266.499
266.252
265.975
265.67
265.338
264.983
264.604
264.203
263.782
263.342
262.884
262.408
261.917
261.41
260.888
260.352
259.803
259.241
258.667
258.081
257.484
256.876
256.257
255.628
254.989
254.341
253.683
253.016
252.341
251.656
250.964
250.263
249.554
248.836
248.111
247.378
246.638
245.89
245.134
244.371
243.6
242.822
242.037
241.244
240.444
239.637
238.823
238.002
237.173
236.337
235.494
234.643
233.786
232.921
232.049
231.17
230.283
229.389
228.488
227.579
226.662
225.739
224.807
223.869
222.922
221.968
221.006
220.037
219.06
218.074
217.081
216.081
215.072
214.054
213.029
211.996
210.954
209.905
208.846
207.78
206.705
205.621
204.529
203.428
202.318
201.2
200.072
198.936
197.791
196.636
195.473
194.3
193.118
191.927
190.726
189.516
188.296
187.066
185.827
184.578
183.319
182.05
180.771
179.482
178.183
176.873
175.553
174.223
172.882
171.53
170.168
168.795
167.411
166.016
164.611
163.194
161.766
160.326
158.875
157.413
155.939
154.454
152.956
151.447
149.927
148.394
146.849
145.292
143.722
142.141
140.547
138.94
137.321
135.69
134.046
132.39
130.721
129.039
127.345
125.638
123.917
122.183
120.433
118.665
116.877
115.061
113.211
111.318
256.833
256.884
256.969
257.09
257.254
257.468
257.738
258.07
258.473
258.947
259.497
260.117
260.795
261.516
262.258
262.989
263.686
264.338
264.926
265.452
265.908
266.295
266.613
266.864
267.049
267.172
267.236
267.244
267.201
267.11
266.975
266.8
266.587
266.341
266.063
265.755
265.421
265.062
264.679
264.275
263.85
263.406
262.943
262.464
261.969
261.458
260.933
260.394
259.842
259.277
258.7
258.111
257.511
256.901
256.28
255.649
255.008
254.358
253.699
253.031
252.354
251.668
250.974
250.272
249.562
248.843
248.117
247.384
246.642
245.893
245.137
244.373
243.602
242.824
242.038
241.245
240.445
239.637
238.823
238.001
237.172
236.336
235.492
234.642
233.784
232.919
232.047
231.167
230.281
229.387
228.485
227.576
226.66
225.736
224.805
223.866
222.919
221.965
221.004
220.034
219.057
218.072
217.079
216.078
215.069
214.052
213.026
211.993
210.952
209.902
208.844
207.777
206.702
205.618
204.526
203.425
202.315
201.197
200.07
198.933
197.788
196.634
195.47
194.298
193.116
191.924
190.724
189.513
188.293
187.064
185.825
184.576
183.317
182.048
180.769
179.48
178.18
176.871
175.551
174.221
172.88
171.528
170.166
168.793
167.409
166.014
164.608
163.192
161.763
160.324
158.873
157.411
155.937
154.451
152.954
151.445
149.924
148.391
146.846
145.289
143.719
142.137
140.543
138.936
137.317
135.684
134.04
132.382
130.711
129.028
127.331
125.62
123.895
122.155
120.398
118.622
116.823
114.995
113.133
111.229
254.247
254.298
254.348
254.419
254.518
254.662
254.861
255.142
255.516
256.014
256.637
257.394
258.275
259.256
260.301
261.348
262.345
263.266
264.083
264.801
265.418
265.938
266.366
266.704
266.959
267.135
267.238
267.276
267.254
267.177
267.051
266.882
266.672
266.426
266.148
265.839
265.502
265.14
264.754
264.346
263.917
263.469
263.003
262.52
262.022
261.507
260.979
260.437
259.881
259.314
258.734
258.143
257.54
256.928
256.305
255.672
255.029
254.377
253.716
253.046
252.367
251.68
250.985
250.282
249.571
248.851
248.124
247.39
246.648
245.898
245.141
244.376
243.605
242.826
242.039
241.246
240.445
239.638
238.823
238.001
237.171
236.335
235.491
234.641
233.783
232.918
232.045
231.166
230.279
229.384
228.483
227.574
226.657
225.734
224.802
223.863
222.917
221.963
221.001
220.031
219.054
218.069
217.076
216.075
215.066
214.049
213.024
211.99
210.949
209.899
208.841
207.774
206.699
205.616
204.523
203.422
202.313
201.194
200.067
198.931
197.786
196.631
195.468
194.295
193.113
191.922
190.721
189.511
188.291
187.062
185.822
184.573
183.314
182.046
180.767
179.477
178.178
176.869
175.549
174.218
172.878
171.526
170.164
168.791
167.407
166.012
164.606
163.19
161.761
160.322
158.871
157.409
155.935
154.449
152.952
151.443
149.922
148.389
146.843
145.286
143.716
142.134
140.539
138.932
137.312
135.679
134.033
132.374
130.702
129.016
127.316
125.602
123.873
122.128
120.364
118.58
116.772
114.934
113.062
111.147
250.893
250.9
250.861
250.792
250.714
250.644
250.609
250.663
250.855
251.246
251.885
252.817
254.023
255.45
257.028
258.648
260.186
261.581
262.795
263.833
264.706
265.429
266.015
266.476
266.824
267.069
267.222
267.295
267.296
267.236
267.121
266.957
266.751
266.507
266.228
265.918
265.579
265.215
264.826
264.415
263.983
263.532
263.062
262.576
262.074
261.557
261.025
260.48
259.922
259.351
258.769
258.175
257.57
256.955
256.33
255.695
255.05
254.397
253.734
253.062
252.382
251.694
250.997
250.293
249.58
248.86
248.132
247.397
246.654
245.903
245.146
244.38
243.608
242.828
242.042
241.248
240.447
239.639
238.823
238.001
237.171
236.335
235.491
234.64
233.782
232.916
232.044
231.164
230.277
229.383
228.481
227.572
226.655
225.731
224.8
223.861
222.915
221.96
220.998
220.029
219.052
218.066
217.073
216.072
215.063
214.046
213.021
211.988
210.946
209.897
208.838
207.772
206.697
205.613
204.521
203.42
202.31
201.192
200.065
198.929
197.783
196.629
195.466
194.293
193.111
191.92
190.719
189.509
188.289
187.059
185.82
184.571
183.312
182.043
180.764
179.475
178.176
176.867
175.547
174.216
172.876
171.524
170.162
168.789
167.405
166.01
164.604
163.188
161.759
160.32
158.869
157.407
155.933
154.447
152.95
151.44
149.919
148.386
146.841
145.283
143.713
142.131
140.536
138.928
137.307
135.673
134.027
132.366
130.693
129.005
127.303
125.585
123.852
122.102
120.332
118.54
116.724
114.877
112.996
111.072
246.704
246.627
246.33
245.874
245.31
244.678
244.03
243.452
243.09
243.152
243.799
245.055
246.839
249.021
251.488
254.093
256.621
258.9
260.843
262.436
263.718
264.743
265.553
266.182
266.65
266.98
267.191
267.303
267.331
267.287
267.183
267.027
266.825
266.582
266.304
265.993
265.653
265.287
264.896
264.482
264.047
263.593
263.121
262.631
262.126
261.606
261.071
260.523
259.962
259.389
258.804
258.208
257.601
256.983
256.356
255.719
255.072
254.417
253.753
253.079
252.398
251.708
251.01
250.305
249.591
248.87
248.141
247.404
246.661
245.909
245.151
244.385
243.612
242.832
242.045
241.25
240.449
239.64
238.824
238.001
237.172
236.335
235.491
234.639
233.781
232.915
232.043
231.163
230.275
229.381
228.479
227.57
226.654
225.73
224.798
223.859
222.912
221.958
220.996
220.027
219.049
218.064
217.071
216.07
215.061
214.044
213.019
211.985
210.944
209.894
208.836
207.769
206.694
205.611
204.519
203.418
202.308
201.19
200.062
198.926
197.781
196.627
195.463
194.291
193.109
191.918
190.717
189.507
188.287
187.057
185.818
184.569
183.31
182.041
180.762
179.473
178.174
176.865
175.545
174.214
172.874
171.522
170.16
168.787
167.403
166.008
164.602
163.186
161.757
160.318
158.867
157.405
155.931
154.445
152.948
151.438
149.917
148.384
146.838
145.28
143.71
142.127
140.532
138.924
137.303
135.668
134.02
132.359
130.684
128.994
127.289
125.569
123.832
122.077
120.301
118.503
116.679
114.825
112.935
111.004
241.2
240.89
240.118
238.927
237.307
235.397
233.429
231.654
230.379
230.075
230.917
232.862
235.728
239.233
243.193
247.427
251.576
255.264
258.298
260.681
262.518
263.927
265.019
265.845
266.45
266.871
267.144
267.295
267.35
267.324
267.232
267.084
266.887
266.649
266.372
266.062
265.722
265.354
264.962
264.546
264.109
263.653
263.178
262.686
262.178
261.655
261.117
260.566
260.003
259.427
258.839
258.241
257.632
257.012
256.383
255.744
255.095
254.438
253.772
253.097
252.414
251.723
251.024
250.317
249.602
248.88
248.15
247.413
246.668
245.916
245.157
244.39
243.616
242.836
242.048
241.253
240.451
239.642
238.826
238.003
237.172
236.335
235.491
234.639
233.78
232.915
232.042
231.162
230.274
229.38
228.478
227.568
226.652
225.728
224.796
223.857
222.91
221.956
220.994
220.025
219.047
218.062
217.069
216.068
215.059
214.042
213.016
211.983
210.942
209.892
208.834
207.767
206.692
205.608
204.516
203.415
202.306
201.187
200.06
198.924
197.779
196.625
195.461
194.289
193.107
191.915
190.715
189.504
188.285
187.055
185.816
184.567
183.308
182.039
180.76
179.471
178.172
176.863
175.543
174.213
172.872
171.52
170.158
168.785
167.401
166.006
164.601
163.184
161.756
160.316
158.865
157.403
155.929
154.443
152.946
151.436
149.915
148.381
146.836
145.278
143.707
142.124
140.529
138.92
137.298
135.663
134.014
132.352
130.675
128.983
127.276
125.553
123.812
122.053
120.272
118.469
116.638
114.777
112.88
110.942
234.588
233.911
232.161
229.289
225.353
220.933
216.854
213.339
210.879
210.297
211.816
215.432
220.694
226.912
233.482
240.15
246.37
251.67
255.823
258.97
261.334
263.121
264.478
265.492
266.226
266.731
267.059
267.249
267.332
267.327
267.251
267.115
266.927
266.695
266.423
266.116
265.778
265.411
265.019
264.602
264.164
263.706
263.23
262.736
262.226
261.7
261.161
260.608
260.042
259.464
258.874
258.273
257.662
257.04
256.409
255.768
255.118
254.459
253.792
253.115
252.431
251.739
251.038
250.33
249.614
248.891
248.16
247.421
246.676
245.923
245.163
244.396
243.621
242.84
242.052
241.256
240.454
239.644
238.828
238.004
237.173
236.336
235.491
234.639
233.78
232.914
232.041
231.161
230.273
229.379
228.477
227.567
226.65
225.726