/*--------------------------------*- C++ -*----------------------------------*\
| =========                 |                                                 |
| \\      /  F ield         | OpenFOAM: The Open Source CFD Toolbox           |
|  \\    /   O peration     | Version:  2.1.x                                 |
|   \\  /    A nd           | Web:      www.OpenFOAM.org                      |
|    \\/     M anipulation  |                                                 |
\*---------------------------------------------------------------------------*/
FoamFile
{
    version     2.0;
    format      ascii;
    class       volScalarField;
    location    "0.003";
    object      pPrime2Mean;
}
// * * * * * * * * * * * * * * * * * * * * * * * * * * * * * * * * * * * * * //

dimensions      [0 4 -4 0 0 0 0];

internalField   nonuniform List<scalar> 
12225
(
1.34446e+08
1.32302e+08
1.30091e+08
1.27958e+08
1.25908e+08
1.23936e+08
1.22037e+08
1.20205e+08
1.18434e+08
1.16718e+08
1.15049e+08
1.1342e+08
1.11821e+08
1.1024e+08
1.0866e+08
1.07056e+08
1.05381e+08
1.03523e+08
1.34449e+08
1.32303e+08
1.30091e+08
1.27959e+08
1.25909e+08
1.23937e+08
1.22039e+08
1.20207e+08
1.18437e+08
1.16721e+08
1.15053e+08
1.13425e+08
1.11827e+08
1.10249e+08
1.08673e+08
1.07077e+08
1.05423e+08
1.03618e+08
1.34452e+08
1.32306e+08
1.30093e+08
1.27961e+08
1.25911e+08
1.2394e+08
1.22042e+08
1.20211e+08
1.18442e+08
1.16727e+08
1.15061e+08
1.13436e+08
1.11842e+08
1.10269e+08
1.08703e+08
1.07125e+08
1.05507e+08
1.03814e+08
1.34457e+08
1.32309e+08
1.30097e+08
1.27965e+08
1.25916e+08
1.23945e+08
1.22048e+08
1.20219e+08
1.18451e+08
1.16739e+08
1.15076e+08
1.13455e+08
1.11867e+08
1.10304e+08
1.08753e+08
1.07202e+08
1.05636e+08
1.04057e+08
1.34463e+08
1.32315e+08
1.30102e+08
1.27971e+08
1.25923e+08
1.23953e+08
1.22058e+08
1.2023e+08
1.18465e+08
1.16757e+08
1.15098e+08
1.13483e+08
1.11905e+08
1.10355e+08
1.08825e+08
1.07309e+08
1.05803e+08
1.04328e+08
1.34475e+08
1.32324e+08
1.30111e+08
1.2798e+08
1.25933e+08
1.23965e+08
1.22072e+08
1.20247e+08
1.18486e+08
1.16782e+08
1.1513e+08
1.13524e+08
1.11958e+08
1.10426e+08
1.08922e+08
1.07446e+08
1.06003e+08
1.04615e+08
1.34493e+08
1.32336e+08
1.30122e+08
1.27992e+08
1.25946e+08
1.23981e+08
1.22091e+08
1.2027e+08
1.18514e+08
1.16816e+08
1.15173e+08
1.13578e+08
1.12028e+08
1.10517e+08
1.09045e+08
1.07612e+08
1.06228e+08
1.04914e+08
1.34508e+08
1.32349e+08
1.30135e+08
1.28006e+08
1.25962e+08
1.23999e+08
1.22112e+08
1.20296e+08
1.18545e+08
1.16855e+08
1.1522e+08
1.13638e+08
1.12103e+08
1.10614e+08
1.0917e+08
1.07774e+08
1.06436e+08
1.05173e+08
1.34525e+08
1.32363e+08
1.30149e+08
1.28021e+08
1.25979e+08
1.24019e+08
1.22135e+08
1.20323e+08
1.18578e+08
1.16895e+08
1.1527e+08
1.137e+08
1.12181e+08
1.10712e+08
1.09294e+08
1.0793e+08
1.06631e+08
1.05407e+08
1.3454e+08
1.3238e+08
1.30167e+08
1.2804e+08
1.26001e+08
1.24045e+08
1.22166e+08
1.20359e+08
1.18621e+08
1.16948e+08
1.15334e+08
1.13778e+08
1.12278e+08
1.10832e+08
1.09442e+08
1.08112e+08
1.0685e+08
1.05664e+08
1.34559e+08
1.32401e+08
1.3019e+08
1.28066e+08
1.2603e+08
1.24078e+08
1.22205e+08
1.20406e+08
1.18677e+08
1.17015e+08
1.15415e+08
1.13877e+08
1.12397e+08
1.10977e+08
1.09617e+08
1.08321e+08
1.07095e+08
1.05944e+08
1.34578e+08
1.32429e+08
1.30221e+08
1.281e+08
1.26069e+08
1.24122e+08
1.22256e+08
1.20466e+08
1.18748e+08
1.17099e+08
1.15516e+08
1.13998e+08
1.12542e+08
1.11149e+08
1.0982e+08
1.08558e+08
1.07366e+08
1.06247e+08
1.34614e+08
1.32467e+08
1.30261e+08
1.28144e+08
1.26118e+08
1.24178e+08
1.22321e+08
1.20542e+08
1.18838e+08
1.17205e+08
1.15641e+08
1.14144e+08
1.12714e+08
1.11349e+08
1.10052e+08
1.08822e+08
1.07662e+08
1.06572e+08
1.34672e+08
1.32518e+08
1.30313e+08
1.282e+08
1.26181e+08
1.2425e+08
1.22403e+08
1.20637e+08
1.18948e+08
1.17334e+08
1.15791e+08
1.14318e+08
1.12914e+08
1.11579e+08
1.10311e+08
1.09112e+08
1.07981e+08
1.06917e+08
1.34733e+08
1.32581e+08
1.30379e+08
1.28271e+08
1.26259e+08
1.24339e+08
1.22504e+08
1.20753e+08
1.19082e+08
1.17487e+08
1.15967e+08
1.14519e+08
1.13142e+08
1.11835e+08
1.10596e+08
1.09425e+08
1.0832e+08
1.0728e+08
1.34814e+08
1.32659e+08
1.3046e+08
1.28359e+08
1.26356e+08
1.24447e+08
1.22627e+08
1.20892e+08
1.1924e+08
1.17666e+08
1.16169e+08
1.14746e+08
1.13395e+08
1.12114e+08
1.10902e+08
1.09756e+08
1.08675e+08
1.07655e+08
1.34903e+08
1.32751e+08
1.30557e+08
1.28463e+08
1.2647e+08
1.24574e+08
1.22769e+08
1.21052e+08
1.19419e+08
1.17867e+08
1.16393e+08
1.14994e+08
1.13667e+08
1.12411e+08
1.11222e+08
1.10098e+08
1.09037e+08
1.08036e+08
1.34995e+08
1.32848e+08
1.30659e+08
1.28574e+08
1.26591e+08
1.24707e+08
1.22917e+08
1.21216e+08
1.19601e+08
1.18068e+08
1.16613e+08
1.15235e+08
1.13929e+08
1.12692e+08
1.11522e+08
1.10416e+08
1.09371e+08
1.08384e+08
1.3508e+08
1.32935e+08
1.30752e+08
1.28673e+08
1.26699e+08
1.24825e+08
1.23046e+08
1.21358e+08
1.19756e+08
1.18238e+08
1.16798e+08
1.15435e+08
1.14143e+08
1.12921e+08
1.11765e+08
1.10672e+08
1.09638e+08
1.0866e+08
1.35148e+08
1.33008e+08
1.30828e+08
1.28753e+08
1.26786e+08
1.24919e+08
1.23148e+08
1.2147e+08
1.19878e+08
1.1837e+08
1.16941e+08
1.15588e+08
1.14307e+08
1.13095e+08
1.11948e+08
1.10863e+08
1.09837e+08
1.08866e+08
1.35208e+08
1.33067e+08
1.30889e+08
1.28818e+08
1.26854e+08
1.24993e+08
1.23229e+08
1.21557e+08
1.19972e+08
1.18472e+08
1.1705e+08
1.15705e+08
1.14431e+08
1.13226e+08
1.12085e+08
1.11006e+08
1.09985e+08
1.09019e+08
1.35255e+08
1.33114e+08
1.30936e+08
1.28867e+08
1.26907e+08
1.2505e+08
1.2329e+08
1.21623e+08
1.20044e+08
1.18549e+08
1.17133e+08
1.15792e+08
1.14524e+08
1.13323e+08
1.12187e+08
1.11112e+08
1.10095e+08
1.09132e+08
1.35293e+08
1.3315e+08
1.30973e+08
1.28905e+08
1.26947e+08
1.25093e+08
1.23336e+08
1.21673e+08
1.20097e+08
1.18606e+08
1.17194e+08
1.15858e+08
1.14593e+08
1.13395e+08
1.12263e+08
1.11191e+08
1.10176e+08
1.09216e+08
1.35323e+08
1.33177e+08
1.31e+08
1.28934e+08
1.26977e+08
1.25125e+08
1.2337e+08
1.21709e+08
1.20137e+08
1.18648e+08
1.17239e+08
1.15905e+08
1.14643e+08
1.13448e+08
1.12317e+08
1.11248e+08
1.10235e+08
1.09276e+08
1.35344e+08
1.33197e+08
1.3102e+08
1.28954e+08
1.26999e+08
1.25148e+08
1.23395e+08
1.21736e+08
1.20165e+08
1.18678e+08
1.17271e+08
1.15939e+08
1.14679e+08
1.13486e+08
1.12357e+08
1.11288e+08
1.10277e+08
1.09319e+08
1.35357e+08
1.3321e+08
1.31034e+08
1.28969e+08
1.27014e+08
1.25164e+08
1.23413e+08
1.21754e+08
1.20185e+08
1.18699e+08
1.17293e+08
1.15963e+08
1.14704e+08
1.13512e+08
1.12384e+08
1.11316e+08
1.10306e+08
1.09349e+08
1.35361e+08
1.33219e+08
1.31043e+08
1.28979e+08
1.27025e+08
1.25175e+08
1.23424e+08
1.21767e+08
1.20198e+08
1.18714e+08
1.17309e+08
1.15979e+08
1.1472e+08
1.13529e+08
1.12402e+08
1.11335e+08
1.10325e+08
1.09369e+08
1.35366e+08
1.33224e+08
1.31049e+08
1.28985e+08
1.27032e+08
1.25182e+08
1.23432e+08
1.21775e+08
1.20207e+08
1.18723e+08
1.17318e+08
1.15989e+08
1.14731e+08
1.1354e+08
1.12414e+08
1.11347e+08
1.10338e+08
1.09382e+08
1.35367e+08
1.33227e+08
1.31053e+08
1.28989e+08
1.27035e+08
1.25186e+08
1.23436e+08
1.21779e+08
1.20211e+08
1.18728e+08
1.17323e+08
1.15994e+08
1.14737e+08
1.13547e+08
1.1242e+08
1.11354e+08
1.10344e+08
1.09389e+08
1.35366e+08
1.33227e+08
1.31054e+08
1.28991e+08
1.27037e+08
1.25188e+08
1.23438e+08
1.21781e+08
1.20213e+08
1.1873e+08
1.17326e+08
1.15997e+08
1.14739e+08
1.13549e+08
1.12423e+08
1.11357e+08
1.10347e+08
1.09392e+08
8.74581e+07
8.74512e+07
8.74371e+07
8.74158e+07
8.73871e+07
8.73509e+07
8.7307e+07
8.72554e+07
8.71959e+07
8.71285e+07
8.70531e+07
8.69695e+07
8.68778e+07
8.67778e+07
8.66696e+07
8.65531e+07
8.64283e+07
8.62952e+07
8.61537e+07
8.6004e+07
8.58459e+07
8.56796e+07
8.55051e+07
8.53224e+07
8.51316e+07
8.49327e+07
8.47259e+07
8.45111e+07
8.42885e+07
8.40581e+07
8.382e+07
8.35744e+07
8.33214e+07
8.30609e+07
8.27932e+07
8.25183e+07
8.22364e+07
8.19475e+07
8.16518e+07
8.13494e+07
8.10404e+07
8.07249e+07
8.04031e+07
8.00749e+07
7.97407e+07
7.94004e+07
7.90542e+07
7.87022e+07
7.83445e+07
7.79812e+07
7.76124e+07
7.72383e+07
7.68589e+07
7.64744e+07
7.60848e+07
7.56903e+07
7.52909e+07
7.48868e+07
7.4478e+07
7.40647e+07
7.36469e+07
7.32247e+07
7.27982e+07
7.23676e+07
7.19328e+07
7.1494e+07
7.10513e+07
7.06047e+07
7.01543e+07
6.97003e+07
6.92426e+07
6.87813e+07
6.83166e+07
6.78484e+07
6.7377e+07
6.69022e+07
6.64243e+07
6.59432e+07
6.54591e+07
6.49719e+07
6.44818e+07
6.39888e+07
6.3493e+07
6.29945e+07
6.24932e+07
6.19893e+07
6.14828e+07
6.09738e+07
6.04622e+07
5.99483e+07
5.9432e+07
5.89134e+07
5.83925e+07
5.78693e+07
5.73441e+07
5.68167e+07
5.62872e+07
5.57558e+07
5.52224e+07
5.4687e+07
5.41499e+07
5.36109e+07
5.30701e+07
5.25276e+07
5.19835e+07
5.14378e+07
5.08905e+07
5.03416e+07
4.97914e+07
4.92397e+07
4.86866e+07
4.81323e+07
4.75767e+07
4.70199e+07
4.64619e+07
4.59028e+07
4.53427e+07
4.47817e+07
4.42197e+07
4.36568e+07
4.30931e+07
4.25286e+07
4.19634e+07
4.13976e+07
4.08312e+07
4.02643e+07
3.9697e+07
3.91292e+07
3.85611e+07
3.79928e+07
3.74243e+07
3.68556e+07
3.62869e+07
3.57183e+07
3.51497e+07
3.45813e+07
3.40131e+07
3.34452e+07
3.28778e+07
3.23108e+07
3.17444e+07
3.11786e+07
3.06136e+07
3.00494e+07
2.94861e+07
2.89238e+07
2.83626e+07
2.78026e+07
2.72439e+07
2.66866e+07
2.61307e+07
2.55765e+07
2.50239e+07
2.44732e+07
2.39244e+07
2.33776e+07
2.2833e+07
2.22906e+07
2.17506e+07
2.12132e+07
2.06784e+07
2.01464e+07
1.96173e+07
1.90912e+07
1.85684e+07
1.80489e+07
1.75329e+07
1.70207e+07
1.65123e+07
1.6008e+07
1.5508e+07
1.50124e+07
1.45217e+07
1.40361e+07
1.35559e+07
1.30817e+07
1.26141e+07
1.2154e+07
1.1703e+07
1.12647e+07
8.749e+07
8.7483e+07
8.74688e+07
8.74474e+07
8.74185e+07
8.73821e+07
8.73379e+07
8.7286e+07
8.72262e+07
8.71584e+07
8.70825e+07
8.69985e+07
8.69063e+07
8.68058e+07
8.66971e+07
8.658e+07
8.64546e+07
8.63208e+07
8.61788e+07
8.60284e+07
8.58697e+07
8.57027e+07
8.55275e+07
8.53441e+07
8.51526e+07
8.49531e+07
8.47455e+07
8.45301e+07
8.43068e+07
8.40757e+07
8.3837e+07
8.35908e+07
8.33371e+07
8.3076e+07
8.28077e+07
8.25322e+07
8.22497e+07
8.19602e+07
8.1664e+07
8.1361e+07
8.10515e+07
8.07355e+07
8.04132e+07
8.00846e+07
7.97499e+07
7.94091e+07
7.90625e+07
7.87101e+07
7.8352e+07
7.79883e+07
7.76192e+07
7.72447e+07
7.6865e+07
7.64802e+07
7.60903e+07
7.56955e+07
7.52958e+07
7.48914e+07
7.44824e+07
7.40688e+07
7.36508e+07
7.32284e+07
7.28017e+07
7.23709e+07
7.19359e+07
7.1497e+07
7.10541e+07
7.06073e+07
7.01568e+07
6.97026e+07
6.92447e+07
6.87834e+07
6.83185e+07
6.78503e+07
6.73787e+07
6.69038e+07
6.64258e+07
6.59446e+07
6.54604e+07
6.49731e+07
6.4483e+07
6.39899e+07
6.3494e+07
6.29954e+07
6.24941e+07
6.19901e+07
6.14835e+07
6.09745e+07
6.04629e+07
5.99489e+07
5.94326e+07
5.89139e+07
5.8393e+07
5.78698e+07
5.73445e+07
5.68171e+07
5.62876e+07
5.57561e+07
5.52227e+07
5.46873e+07
5.41501e+07
5.36111e+07
5.30703e+07
5.25278e+07
5.19837e+07
5.14379e+07
5.08906e+07
5.03418e+07
4.97915e+07
4.92398e+07
4.86868e+07
4.81324e+07
4.75768e+07
4.702e+07
4.6462e+07
4.59029e+07
4.53428e+07
4.47817e+07
4.42197e+07
4.36568e+07
4.30931e+07
4.25286e+07
4.19635e+07
4.13977e+07
4.08313e+07
4.02644e+07
3.9697e+07
3.91292e+07
3.85612e+07
3.79928e+07
3.74243e+07
3.68557e+07
3.6287e+07
3.57183e+07
3.51497e+07
3.45813e+07
3.40131e+07
3.34453e+07
3.28778e+07
3.23108e+07
3.17444e+07
3.11787e+07
3.06136e+07
3.00494e+07
2.94861e+07
2.89238e+07
2.83626e+07
2.78026e+07
2.72439e+07
2.66866e+07
2.61307e+07
2.55765e+07
2.50239e+07
2.44732e+07
2.39244e+07
2.33776e+07
2.2833e+07
2.22906e+07
2.17506e+07
2.12132e+07
2.06784e+07
2.01464e+07
1.96173e+07
1.90912e+07
1.85684e+07
1.80489e+07
1.75329e+07
1.70206e+07
1.65123e+07
1.60079e+07
1.55079e+07
1.50123e+07
1.45216e+07
1.40359e+07
1.35557e+07
1.30813e+07
1.26135e+07
1.21531e+07
1.17015e+07
1.12612e+07
8.75541e+07
8.75469e+07
8.75325e+07
8.75108e+07
8.74815e+07
8.74446e+07
8.73999e+07
8.73474e+07
8.72868e+07
8.72183e+07
8.71415e+07
8.70566e+07
8.69634e+07
8.68619e+07
8.6752e+07
8.66338e+07
8.65072e+07
8.63723e+07
8.62289e+07
8.60772e+07
8.59172e+07
8.57489e+07
8.55723e+07
8.53876e+07
8.51947e+07
8.49938e+07
8.47849e+07
8.4568e+07
8.43434e+07
8.4111e+07
8.3871e+07
8.36234e+07
8.33684e+07
8.31061e+07
8.28366e+07
8.25599e+07
8.22762e+07
8.19856e+07
8.16883e+07
8.13843e+07
8.10737e+07
8.07567e+07
8.04334e+07
8.01038e+07
7.97682e+07
7.94266e+07
7.90791e+07
7.87259e+07
7.8367e+07
7.80026e+07
7.76328e+07
7.72576e+07
7.68772e+07
7.64917e+07
7.61013e+07
7.57059e+07
7.53056e+07
7.49007e+07
7.44912e+07
7.40771e+07
7.36587e+07
7.32358e+07
7.28087e+07
7.23775e+07
7.19422e+07
7.15028e+07
7.10596e+07
7.06125e+07
7.01617e+07
6.97072e+07
6.92491e+07
6.87874e+07
6.83223e+07
6.78539e+07
6.7382e+07
6.6907e+07
6.64287e+07
6.59474e+07
6.5463e+07
6.49756e+07
6.44852e+07
6.3992e+07
6.3496e+07
6.29973e+07
6.24958e+07
6.19917e+07
6.14851e+07
6.09759e+07
6.04642e+07
5.99501e+07
5.94337e+07
5.8915e+07
5.83939e+07
5.78707e+07
5.73454e+07
5.68179e+07
5.62883e+07
5.57568e+07
5.52233e+07
5.46879e+07
5.41507e+07
5.36116e+07
5.30708e+07
5.25283e+07
5.19841e+07
5.14383e+07
5.0891e+07
5.03421e+07
4.97918e+07
4.92401e+07
4.8687e+07
4.81326e+07
4.7577e+07
4.70201e+07
4.64622e+07
4.59031e+07
4.5343e+07
4.47819e+07
4.42198e+07
4.36569e+07
4.30932e+07
4.25287e+07
4.19635e+07
4.13977e+07
4.08313e+07
4.02644e+07
3.96971e+07
3.91293e+07
3.85612e+07
3.79929e+07
3.74243e+07
3.68557e+07
3.6287e+07
3.57183e+07
3.51497e+07
3.45813e+07
3.40131e+07
3.34453e+07
3.28778e+07
3.23108e+07
3.17444e+07
3.11787e+07
3.06136e+07
3.00494e+07
2.94861e+07
2.89238e+07
2.83626e+07
2.78026e+07
2.72439e+07
2.66866e+07
2.61307e+07
2.55765e+07
2.50239e+07
2.44732e+07
2.39244e+07
2.33776e+07
2.2833e+07
2.22906e+07
2.17506e+07
2.12132e+07
2.06784e+07
2.01463e+07
1.96172e+07
1.90912e+07
1.85683e+07
1.80488e+07
1.75328e+07
1.70206e+07
1.65121e+07
1.60078e+07
1.55077e+07
1.50121e+07
1.45213e+07
1.40355e+07
1.35551e+07
1.30806e+07
1.26125e+07
1.21515e+07
1.16988e+07
1.12557e+07
8.76506e+07
8.76432e+07
8.76285e+07
8.76063e+07
8.75764e+07
8.75388e+07
8.74933e+07
8.74398e+07
8.73782e+07
8.73084e+07
8.72304e+07
8.71441e+07
8.70494e+07
8.69463e+07
8.68347e+07
8.67148e+07
8.65864e+07
8.64495e+07
8.63042e+07
8.61506e+07
8.59885e+07
8.58182e+07
8.56396e+07
8.54528e+07
8.52578e+07
8.50548e+07
8.48438e+07
8.46249e+07
8.43983e+07
8.41639e+07
8.39219e+07
8.36723e+07
8.34154e+07
8.31512e+07
8.28798e+07
8.26013e+07
8.23159e+07
8.20236e+07
8.17246e+07
8.1419e+07
8.11069e+07
8.07883e+07
8.04635e+07
8.01326e+07
7.97956e+07
7.94527e+07
7.91039e+07
7.87495e+07
7.83895e+07
7.80239e+07
7.7653e+07
7.72768e+07
7.68955e+07
7.6509e+07
7.61176e+07
7.57214e+07
7.53203e+07
7.49146e+07
7.45043e+07
7.40896e+07
7.36704e+07
7.32469e+07
7.28192e+07
7.23874e+07
7.19515e+07
7.15116e+07
7.10679e+07
7.06203e+07
7.0169e+07
6.97141e+07
6.92556e+07
6.87935e+07
6.83281e+07
6.78592e+07
6.73871e+07
6.69117e+07
6.64332e+07
6.59516e+07
6.54669e+07
6.49792e+07
6.44887e+07
6.39952e+07
6.3499e+07
6.30001e+07
6.24984e+07
6.19942e+07
6.14873e+07
6.0978e+07
6.04662e+07
5.9952e+07
5.94354e+07
5.89165e+07
5.83954e+07
5.78721e+07
5.73466e+07
5.68191e+07
5.62894e+07
5.57578e+07
5.52243e+07
5.46888e+07
5.41515e+07
5.36124e+07
5.30715e+07
5.25289e+07
5.19847e+07
5.14389e+07
5.08915e+07
5.03426e+07
4.97922e+07
4.92405e+07
4.86874e+07
4.81329e+07
4.75773e+07
4.70204e+07
4.64624e+07
4.59033e+07
4.53432e+07
4.47821e+07
4.422e+07
4.36571e+07
4.30934e+07
4.25289e+07
4.19637e+07
4.13978e+07
4.08314e+07
4.02645e+07
3.96971e+07
3.91294e+07
3.85613e+07
3.79929e+07
3.74244e+07
3.68558e+07
3.6287e+07
3.57184e+07
3.51498e+07
3.45813e+07
3.40132e+07
3.34453e+07
3.28778e+07
3.23109e+07
3.17445e+07
3.11787e+07
3.06137e+07
3.00494e+07
2.94861e+07
2.89238e+07
2.83626e+07
2.78026e+07
2.72439e+07
2.66866e+07
2.61307e+07
2.55765e+07
2.50239e+07
2.44732e+07
2.39244e+07
2.33776e+07
2.2833e+07
2.22906e+07
2.17506e+07
2.12132e+07
2.06783e+07
2.01463e+07
1.96172e+07
1.90911e+07
1.85683e+07
1.80487e+07
1.75327e+07
1.70204e+07
1.6512e+07
1.60076e+07
1.55074e+07
1.50118e+07
1.45208e+07
1.40349e+07
1.35544e+07
1.30796e+07
1.2611e+07
1.21493e+07
1.16952e+07
1.12493e+07
8.77802e+07
8.77726e+07
8.77574e+07
8.77345e+07
8.77039e+07
8.76653e+07
8.76186e+07
8.75638e+07
8.75007e+07
8.74293e+07
8.73495e+07
8.72613e+07
8.71645e+07
8.70592e+07
8.69454e+07
8.68231e+07
8.66922e+07
8.65528e+07
8.64049e+07
8.62485e+07
8.60838e+07
8.59107e+07
8.57293e+07
8.55397e+07
8.53419e+07
8.51361e+07
8.49224e+07
8.47007e+07
8.44713e+07
8.42342e+07
8.39895e+07
8.37374e+07
8.34779e+07
8.32112e+07
8.29373e+07
8.26564e+07
8.23687e+07
8.20741e+07
8.17729e+07
8.14651e+07
8.11509e+07
8.08304e+07
8.05036e+07
8.01708e+07
7.9832e+07
7.94873e+07
7.91369e+07
7.87808e+07
7.84192e+07
7.80522e+07
7.76799e+07
7.73023e+07
7.69196e+07
7.65319e+07
7.61393e+07
7.57419e+07
7.53398e+07
7.4933e+07
7.45218e+07
7.4106e+07
7.36859e+07
7.32616e+07
7.28331e+07
7.24005e+07
7.19638e+07
7.15233e+07
7.10788e+07
7.06306e+07
7.01788e+07
6.97232e+07
6.92642e+07
6.88016e+07
6.83357e+07
6.78664e+07
6.73938e+07
6.6918e+07
6.64391e+07
6.59571e+07
6.5472e+07
6.49841e+07
6.44932e+07
6.39995e+07
6.3503e+07
6.30038e+07
6.25019e+07
6.19974e+07
6.14903e+07
6.09808e+07
6.04688e+07
5.99544e+07
5.94377e+07
5.89186e+07
5.83974e+07
5.78739e+07
5.73483e+07
5.68206e+07
5.62909e+07
5.57592e+07
5.52255e+07
5.46899e+07
5.41525e+07
5.36133e+07
5.30724e+07
5.25298e+07
5.19855e+07
5.14396e+07
5.08921e+07
5.03432e+07
4.97928e+07
4.9241e+07
4.86878e+07
4.81334e+07
4.75777e+07
4.70208e+07
4.64628e+07
4.59036e+07
4.53435e+07
4.47823e+07
4.42203e+07
4.36573e+07
4.30936e+07
4.2529e+07
4.19638e+07
4.1398e+07
4.08316e+07
4.02646e+07
3.96973e+07
3.91295e+07
3.85614e+07
3.7993e+07
3.74245e+07
3.68558e+07
3.62871e+07
3.57184e+07
3.51498e+07
3.45814e+07
3.40132e+07
3.34453e+07
3.28779e+07
3.23109e+07
3.17445e+07
3.11787e+07
3.06137e+07
3.00495e+07
2.94862e+07
2.89239e+07
2.83627e+07
2.78026e+07
2.72439e+07
2.66866e+07
2.61307e+07
2.55765e+07
2.50239e+07
2.44732e+07
2.39244e+07
2.33776e+07
2.2833e+07
2.22906e+07
2.17506e+07
2.12131e+07
2.06783e+07
2.01463e+07
1.96171e+07
1.90911e+07
1.85682e+07
1.80486e+07
1.75326e+07
1.70203e+07
1.65118e+07
1.60073e+07
1.55071e+07
1.50113e+07
1.45203e+07
1.40342e+07
1.35534e+07
1.30782e+07
1.26091e+07
1.21465e+07
1.1691e+07
1.12425e+07
8.79438e+07
8.79358e+07
8.792e+07
8.78963e+07
8.78646e+07
8.78248e+07
8.77766e+07
8.77201e+07
8.76551e+07
8.75816e+07
8.74995e+07
8.74087e+07
8.73093e+07
8.72013e+07
8.70845e+07
8.69591e+07
8.6825e+07
8.66823e+07
8.65311e+07
8.63713e+07
8.62031e+07
8.60265e+07
8.58415e+07
8.56484e+07
8.54471e+07
8.52377e+07
8.50204e+07
8.47953e+07
8.45624e+07
8.43219e+07
8.40739e+07
8.38185e+07
8.35557e+07
8.32858e+07
8.30089e+07
8.2725e+07
8.24343e+07
8.21369e+07
8.18329e+07
8.15224e+07
8.12056e+07
8.08826e+07
8.05534e+07
8.02182e+07
7.98772e+07
7.95303e+07
7.91778e+07
7.88198e+07
7.84562e+07
7.80873e+07
7.77132e+07
7.7334e+07
7.69496e+07
7.65604e+07
7.61663e+07
7.57675e+07
7.5364e+07
7.49559e+07
7.45434e+07
7.41265e+07
7.37053e+07
7.32798e+07
7.28503e+07
7.24167e+07
7.19791e+07
7.15377e+07
7.10924e+07
7.06435e+07
7.01908e+07
6.97346e+07
6.92748e+07
6.88117e+07
6.83451e+07
6.78752e+07
6.74021e+07
6.69258e+07
6.64464e+07
6.59639e+07
6.54785e+07
6.49901e+07
6.44988e+07
6.40047e+07
6.35079e+07
6.30084e+07
6.25062e+07
6.20014e+07
6.14941e+07
6.09843e+07
6.0472e+07
5.99574e+07
5.94405e+07
5.89213e+07
5.83998e+07
5.78762e+07
5.73504e+07
5.68226e+07
5.62927e+07
5.57609e+07
5.52271e+07
5.46914e+07
5.41539e+07
5.36146e+07
5.30735e+07
5.25308e+07
5.19864e+07
5.14405e+07
5.0893e+07
5.03439e+07
4.97935e+07
4.92416e+07
4.86884e+07
4.81339e+07
4.75782e+07
4.70213e+07
4.64632e+07
4.5904e+07
4.53438e+07
4.47826e+07
4.42205e+07
4.36576e+07
4.30938e+07
4.25293e+07
4.1964e+07
4.13982e+07
4.08317e+07
4.02648e+07
3.96974e+07
3.91296e+07
3.85615e+07
3.79931e+07
3.74246e+07
3.68559e+07
3.62872e+07
3.57185e+07
3.51499e+07
3.45814e+07
3.40133e+07
3.34454e+07
3.28779e+07
3.23109e+07
3.17445e+07
3.11787e+07
3.06137e+07
3.00495e+07
2.94862e+07
2.89239e+07
2.83627e+07
2.78027e+07
2.72439e+07
2.66866e+07
2.61308e+07
2.55765e+07
2.50239e+07
2.44732e+07
2.39244e+07
2.33776e+07
2.28329e+07
2.22906e+07
2.17506e+07
2.12131e+07
2.06783e+07
2.01462e+07
1.96171e+07
1.9091e+07
1.85681e+07
1.80485e+07
1.75325e+07
1.70201e+07
1.65115e+07
1.6007e+07
1.55067e+07
1.50108e+07
1.45196e+07
1.40333e+07
1.35522e+07
1.30766e+07
1.26069e+07
1.21434e+07
1.16864e+07
1.12356e+07
8.81424e+07
8.81339e+07
8.81174e+07
8.80927e+07
8.80597e+07
8.80182e+07
8.79682e+07
8.79095e+07
8.78421e+07
8.77659e+07
8.76809e+07
8.75871e+07
8.74844e+07
8.73728e+07
8.72524e+07
8.71232e+07
8.69852e+07
8.68384e+07
8.6683e+07
8.6519e+07
8.63465e+07
8.61656e+07
8.59763e+07
8.57788e+07
8.55732e+07
8.53595e+07
8.51379e+07
8.49086e+07
8.46715e+07
8.44268e+07
8.41748e+07
8.39153e+07
8.36487e+07
8.3375e+07
8.30944e+07
8.28068e+07
8.25126e+07
8.22118e+07
8.19045e+07
8.15908e+07
8.12709e+07
8.09448e+07
8.06127e+07
8.02748e+07
7.9931e+07
7.95816e+07
7.92266e+07
7.88661e+07
7.85002e+07
7.81292e+07
7.77529e+07
7.73716e+07
7.69854e+07
7.65943e+07
7.61984e+07
7.57978e+07
7.53927e+07
7.49831e+07
7.45691e+07
7.41508e+07
7.37282e+07
7.33015e+07
7.28708e+07
7.2436e+07
7.19974e+07
7.15549e+07
7.11086e+07
7.06587e+07
7.02052e+07
6.97481e+07
6.92875e+07
6.88236e+07
6.83563e+07
6.78857e+07
6.7412e+07
6.69351e+07
6.64551e+07
6.59721e+07
6.54861e+07
6.49972e+07
6.45055e+07
6.4011e+07
6.35137e+07
6.30138e+07
6.25113e+07
6.20062e+07
6.14985e+07
6.09884e+07
6.04759e+07
5.9961e+07
5.94438e+07
5.89244e+07
5.84027e+07
5.78789e+07
5.73529e+07
5.68249e+07
5.62949e+07
5.57628e+07
5.52289e+07
5.46931e+07
5.41555e+07
5.3616e+07
5.30749e+07
5.25321e+07
5.19876e+07
5.14415e+07
5.08939e+07
5.03448e+07
4.97943e+07
4.92424e+07
4.86891e+07
4.81346e+07
4.75788e+07
4.70218e+07
4.64637e+07
4.59045e+07
4.53442e+07
4.4783e+07
4.42209e+07
4.36579e+07
4.30941e+07
4.25295e+07
4.19643e+07
4.13984e+07
4.0832e+07
4.0265e+07
3.96976e+07
3.91298e+07
3.85616e+07
3.79933e+07
3.74247e+07
3.6856e+07
3.62873e+07
3.57186e+07
3.515e+07
3.45815e+07
3.40133e+07
3.34454e+07
3.2878e+07
3.2311e+07
3.17446e+07
3.11788e+07
3.06137e+07
3.00495e+07
2.94862e+07
2.89239e+07
2.83627e+07
2.78027e+07
2.72439e+07
2.66866e+07
2.61308e+07
2.55765e+07
2.50239e+07
2.44732e+07
2.39244e+07
2.33776e+07
2.28329e+07
2.22905e+07
2.17505e+07
2.12131e+07
2.06782e+07
2.01462e+07
1.9617e+07
1.90909e+07
1.85679e+07
1.80484e+07
1.75323e+07
1.70198e+07
1.65112e+07
1.60066e+07
1.55062e+07
1.50102e+07
1.45188e+07
1.40322e+07
1.35508e+07
1.30748e+07
1.26044e+07
1.214e+07
1.16816e+07
1.12289e+07
8.83773e+07
8.83683e+07
8.83509e+07
8.83249e+07
8.82902e+07
8.82468e+07
8.81944e+07
8.81331e+07
8.80628e+07
8.79833e+07
8.78948e+07
8.77971e+07
8.76904e+07
8.75746e+07
8.74497e+07
8.73158e+07
8.7173e+07
8.70214e+07
8.6861e+07
8.66919e+07
8.65143e+07
8.63282e+07
8.61337e+07
8.5931e+07
8.57202e+07
8.55014e+07
8.52747e+07
8.50403e+07
8.47983e+07
8.45488e+07
8.42919e+07
8.40278e+07
8.37566e+07
8.34784e+07
8.31934e+07
8.29017e+07
8.26033e+07
8.22985e+07
8.19873e+07
8.16699e+07
8.13463e+07
8.10168e+07
8.06814e+07
8.03401e+07
7.99932e+07
7.96408e+07
7.92829e+07
7.89196e+07
7.85511e+07
7.81775e+07
7.77988e+07
7.74151e+07
7.70266e+07
7.66334e+07
7.62354e+07
7.58329e+07
7.54259e+07
7.50145e+07
7.45988e+07
7.41789e+07
7.37548e+07
7.33266e+07
7.28944e+07
7.24583e+07
7.20184e+07
7.15747e+07
7.11273e+07
7.06763e+07
7.02217e+07
6.97637e+07
6.93022e+07
6.88374e+07
6.83692e+07
6.78979e+07
6.74234e+07
6.69458e+07
6.64651e+07
6.59815e+07
6.54949e+07
6.50055e+07
6.45132e+07
6.40182e+07
6.35205e+07
6.30201e+07
6.25172e+07
6.20117e+07
6.15036e+07
6.09932e+07
6.04804e+07
5.99652e+07
5.94477e+07
5.8928e+07
5.8406e+07
5.7882e+07
5.73558e+07
5.68276e+07
5.62973e+07
5.57651e+07
5.5231e+07
5.46951e+07
5.41573e+07
5.36177e+07
5.30765e+07
5.25335e+07
5.19889e+07
5.14428e+07
5.08951e+07
5.03459e+07
4.97953e+07
4.92433e+07
4.86899e+07
4.81353e+07
4.75795e+07
4.70224e+07
4.64643e+07
4.5905e+07
4.53447e+07
4.47835e+07
4.42213e+07
4.36583e+07
4.30944e+07
4.25299e+07
4.19646e+07
4.13987e+07
4.08322e+07
4.02652e+07
3.96978e+07
3.91299e+07
3.85618e+07
3.79934e+07
3.74248e+07
3.68561e+07
3.62874e+07
3.57187e+07
3.51501e+07
3.45816e+07
3.40134e+07
3.34455e+07
3.2878e+07
3.2311e+07
3.17446e+07
3.11788e+07
3.06138e+07
3.00496e+07
2.94862e+07
2.89239e+07
2.83627e+07
2.78027e+07
2.7244e+07
2.66866e+07
2.61308e+07
2.55765e+07
2.50239e+07
2.44732e+07
2.39244e+07
2.33776e+07
2.28329e+07
2.22905e+07
2.17505e+07
2.1213e+07
2.06782e+07
2.01461e+07
1.96169e+07
1.90908e+07
1.85678e+07
1.80482e+07
1.7532e+07
1.70196e+07
1.65109e+07
1.60062e+07
1.55056e+07
1.50095e+07
1.45179e+07
1.40311e+07
1.35493e+07
1.30728e+07
1.26018e+07
1.21364e+07
1.16767e+07
1.12223e+07
8.86504e+07
8.86407e+07
8.86221e+07
8.85946e+07
8.85579e+07
8.85121e+07
8.84569e+07
8.83923e+07
8.83184e+07
8.8235e+07
8.81421e+07
8.80398e+07
8.79282e+07
8.78072e+07
8.7677e+07
8.75375e+07
8.7389e+07
8.72316e+07
8.70652e+07
8.68901e+07
8.67064e+07
8.65142e+07
8.63136e+07
8.61049e+07
8.5888e+07
8.56632e+07
8.54306e+07
8.51904e+07
8.49426e+07
8.46875e+07
8.44251e+07
8.41556e+07
8.38791e+07
8.35958e+07
8.33058e+07
8.30092e+07
8.27061e+07
8.23968e+07
8.20811e+07
8.17595e+07
8.14318e+07
8.10983e+07
8.0759e+07
8.04141e+07
8.00636e+07
7.97077e+07
7.93466e+07
7.89801e+07
7.86086e+07
7.82321e+07
7.78506e+07
7.74643e+07
7.70732e+07
7.66775e+07
7.62773e+07
7.58726e+07
7.54635e+07
7.505e+07
7.46324e+07
7.42106e+07
7.37847e+07
7.33549e+07
7.29212e+07
7.24836e+07
7.20422e+07
7.15971e+07
7.11484e+07
7.06962e+07
7.02405e+07
6.97813e+07
6.93188e+07
6.88529e+07
6.83839e+07
6.79116e+07
6.74363e+07
6.69579e+07
6.64765e+07
6.59921e+07
6.55049e+07
6.50148e+07
6.45219e+07
6.40264e+07
6.35281e+07
6.30273e+07
6.25238e+07
6.20179e+07
6.15094e+07
6.09986e+07
6.04854e+07
5.99699e+07
5.94521e+07
5.8932e+07
5.84098e+07
5.78855e+07
5.73591e+07
5.68306e+07
5.63001e+07
5.57678e+07
5.52335e+07
5.46973e+07
5.41594e+07
5.36196e+07
5.30782e+07
5.25351e+07
5.19904e+07
5.14442e+07
5.08964e+07
5.03471e+07
4.97964e+07
4.92443e+07
4.86909e+07
4.81362e+07
4.75802e+07
4.70231e+07
4.64649e+07
4.59056e+07
4.53453e+07
4.4784e+07
4.42218e+07
4.36587e+07
4.30948e+07
4.25302e+07
4.19649e+07
4.1399e+07
4.08325e+07
4.02654e+07
3.9698e+07
3.91301e+07
3.8562e+07
3.79936e+07
3.7425e+07
3.68563e+07
3.62875e+07
3.57188e+07
3.51502e+07
3.45817e+07
3.40135e+07
3.34456e+07
3.28781e+07
3.23111e+07
3.17447e+07
3.11789e+07
3.06138e+07
3.00496e+07
2.94863e+07
2.8924e+07
2.83627e+07
2.78027e+07
2.7244e+07
2.66866e+07
2.61308e+07
2.55765e+07
2.5024e+07
2.44732e+07
2.39244e+07
2.33775e+07
2.28329e+07
2.22905e+07
2.17505e+07
2.1213e+07
2.06781e+07
2.0146e+07
1.96168e+07
1.90906e+07
1.85677e+07
1.8048e+07
1.75318e+07
1.70193e+07
1.65105e+07
1.60057e+07
1.55051e+07
1.50087e+07
1.45169e+07
1.40298e+07
1.35477e+07
1.30707e+07
1.2599e+07
1.21327e+07
1.16718e+07
1.1216e+07
8.89636e+07
8.89531e+07
8.89332e+07
8.89037e+07
8.88647e+07
8.88158e+07
8.87572e+07
8.86887e+07
8.86104e+07
8.85222e+07
8.84241e+07
8.83163e+07
8.81988e+07
8.80716e+07
8.7935e+07
8.7789e+07
8.76337e+07
8.74693e+07
8.7296e+07
8.71138e+07
8.6923e+07
8.67237e+07
8.65161e+07
8.63003e+07
8.60764e+07
8.58447e+07
8.56054e+07
8.53584e+07
8.51041e+07
8.48426e+07
8.45739e+07
8.42983e+07
8.40159e+07
8.37267e+07
8.34311e+07
8.3129e+07
8.28207e+07
8.25062e+07
8.21856e+07
8.18591e+07
8.15268e+07
8.11888e+07
8.08453e+07
8.04962e+07
8.01418e+07
7.97821e+07
7.94173e+07
7.90474e+07
7.86725e+07
7.82927e+07
7.79081e+07
7.75189e+07
7.7125e+07
7.67266e+07
7.63238e+07
7.59166e+07
7.55051e+07
7.50894e+07
7.46696e+07
7.42458e+07
7.3818e+07
7.33863e+07
7.29508e+07
7.25115e+07
7.20686e+07
7.1622e+07
7.11719e+07
7.07183e+07
7.02612e+07
6.98008e+07
6.93371e+07
6.88702e+07
6.84001e+07
6.79269e+07
6.74506e+07
6.69713e+07
6.64891e+07
6.60039e+07
6.55159e+07
6.50252e+07
6.45316e+07
6.40354e+07
6.35366e+07
6.30352e+07
6.25312e+07
6.20248e+07
6.15159e+07
6.10046e+07
6.0491e+07
5.99751e+07
5.94569e+07
5.89365e+07
5.8414e+07
5.78894e+07
5.73627e+07
5.6834e+07
5.63033e+07
5.57706e+07
5.52361e+07
5.46998e+07
5.41617e+07
5.36218e+07
5.30802e+07
5.2537e+07
5.19921e+07
5.14457e+07
5.08978e+07
5.03484e+07
4.97976e+07
4.92454e+07
4.86919e+07
4.81371e+07
4.75811e+07
4.70239e+07
4.64656e+07
4.59063e+07
4.53459e+07
4.47845e+07
4.42223e+07
4.36592e+07
4.30953e+07
4.25306e+07
4.19653e+07
4.13993e+07
4.08328e+07
4.02657e+07
3.96982e+07
3.91304e+07
3.85622e+07
3.79938e+07
3.74251e+07
3.68564e+07
3.62877e+07
3.57189e+07
3.51503e+07
3.45818e+07
3.40136e+07
3.34457e+07
3.28782e+07
3.23112e+07
3.17447e+07
3.11789e+07
3.06139e+07
3.00496e+07
2.94863e+07
2.8924e+07
2.83628e+07
2.78027e+07
2.7244e+07
2.66867e+07
2.61308e+07
2.55765e+07
2.5024e+07
2.44732e+07
2.39243e+07
2.33775e+07
2.28329e+07
2.22905e+07
2.17504e+07
2.12129e+07
2.06781e+07
2.01459e+07
1.96167e+07
1.90905e+07
1.85675e+07
1.80478e+07
1.75316e+07
1.70189e+07
1.65101e+07
1.60052e+07
1.55044e+07
1.50079e+07
1.45159e+07
1.40285e+07
1.3546e+07
1.30685e+07
1.25962e+07
1.2129e+07
1.16671e+07
1.12099e+07
8.93196e+07
8.93081e+07
8.92865e+07
8.92548e+07
8.92128e+07
8.91603e+07
8.90975e+07
8.90243e+07
8.89406e+07
8.88466e+07
8.87423e+07
8.86278e+07
8.85032e+07
8.83687e+07
8.82245e+07
8.80707e+07
8.79075e+07
8.7735e+07
8.75535e+07
8.73631e+07
8.71641e+07
8.69566e+07
8.67408e+07
8.6517e+07
8.62852e+07
8.60457e+07
8.57986e+07
8.55441e+07
8.52824e+07
8.50136e+07
8.47379e+07
8.44555e+07
8.41664e+07
8.38708e+07
8.35689e+07
8.32607e+07
8.29465e+07
8.26263e+07
8.23002e+07
8.19685e+07
8.16311e+07
8.12882e+07
8.09399e+07
8.05863e+07
8.02275e+07
7.98636e+07
7.94948e+07
7.9121e+07
7.87424e+07
7.83591e+07
7.79711e+07
7.75786e+07
7.71816e+07
7.67803e+07
7.63746e+07
7.59647e+07
7.55507e+07
7.51325e+07
7.47104e+07
7.42843e+07
7.38544e+07
7.34207e+07
7.29833e+07
7.25422e+07
7.20975e+07
7.16492e+07
7.11975e+07
7.07424e+07
7.0284e+07
6.98222e+07
6.93573e+07
6.88891e+07
6.84179e+07
6.79436e+07
6.74663e+07
6.6986e+07
6.65028e+07
6.60168e+07
6.5528e+07
6.50365e+07
6.45422e+07
6.40454e+07
6.35459e+07
6.30438e+07
6.25393e+07
6.20323e+07
6.15229e+07
6.10112e+07
6.04971e+07
5.99808e+07
5.94622e+07
5.89415e+07
5.84186e+07
5.78937e+07
5.73667e+07
5.68376e+07
5.63067e+07
5.57738e+07
5.52391e+07
5.47025e+07
5.41642e+07
5.36241e+07
5.30823e+07
5.25389e+07
5.19939e+07