/*--------------------------------*- C++ -*----------------------------------*\
| =========                 |                                                 |
| \\      /  F ield         | OpenFOAM: The Open Source CFD Toolbox           |
|  \\    /   O peration     | Version:  2.1.x                                 |
|   \\  /    A nd           | Web:      www.OpenFOAM.org                      |
|    \\/     M anipulation  |                                                 |
\*---------------------------------------------------------------------------*/
FoamFile
{
    version     2.0;
    format      ascii;
    class       volVectorField;
    location    "0.003";
    object      U;
}
// * * * * * * * * * * * * * * * * * * * * * * * * * * * * * * * * * * * * * //

dimensions      [0 1 -1 0 0 0 0];

internalField   nonuniform List<vector> 
12225
(
(7.14146 0.398085 0)
(4.39382 0.182973 0)
(3.01018 0.0246088 0)
(2.42209 -0.0152881 0)
(2.0723 -0.00809355 0)
(2.00323 -0.00982071 0)
(2.00198 -0.0224525 0)
(2.01942 0.000601012 0)
(1.86673 0.014885 0)
(1.90115 -0.0142244 0)
(2.12523 -0.0346392 0)
(2.22224 -0.0023282 0)
(2.2025 0.0162961 0)
(2.05598 0.0121914 0)
(2.40891 -0.0222221 0)
(2.52211 -0.0610643 0)
(3.22592 -0.0318237 0)
(3.03359 -0.0701753 0)
(9.73547 0.984177 0)
(8.95563 0.847447 0)
(7.83946 0.429167 0)
(7.00937 0.202048 0)
(6.14033 0.120817 0)
(5.95985 0.0360364 0)
(5.75391 -0.0237206 0)
(5.56847 0.028101 0)
(5.33603 0.0716797 0)
(5.4292 -0.0801402 0)
(5.70266 -0.114588 0)
(5.69996 -0.0219031 0)
(5.8117 0.0686093 0)
(5.49839 -0.0647255 0)
(6.13105 -0.195952 0)
(6.39651 -0.253908 0)
(7.2143 -0.206652 0)
(7.45583 -0.129342 0)
(10.1508 0.786135 0)
(10.6698 0.869639 0)
(10.3986 0.53984 0)
(10.1118 0.383567 0)
(9.21506 0.302282 0)
(9.14545 0.100275 0)
(9.00186 0.0430869 0)
(8.64353 0.131811 0)
(8.24958 0.12608 0)
(8.41308 -0.151019 0)
(8.5282 -0.196762 0)
(8.59907 -0.0127181 0)
(8.69932 0.12906 0)
(8.45585 -0.0503869 0)
(8.74124 -0.452754 0)
(9.05541 -0.551883 0)
(9.9158 -0.449782 0)
(10.2339 -0.216655 0)
(9.98452 0.635705 0)
(10.5594 0.877661 0)
(10.9457 0.553398 0)
(11.4482 0.395301 0)
(10.7817 0.386576 0)
(10.7793 0.106964 0)
(11.0264 0.0810769 0)
(10.8379 0.290129 0)
(10.3919 0.253678 0)
(10.4183 -0.204956 0)
(10.3837 -0.254731 0)
(10.6254 -0.036524 0)
(10.8162 0.153618 0)
(10.6501 -0.0258857 0)
(10.6409 -0.520477 0)
(10.9479 -0.890356 0)
(11.6143 -0.793005 0)
(11.5015 -0.274048 0)
(9.94089 0.584903 0)
(10.5154 0.656585 0)
(11.0423 0.365373 0)
(11.2152 0.477908 0)
(10.951 0.5429 0)
(11.185 -0.0290767 0)
(11.235 -0.0967933 0)
(11.0165 0.412187 0)
(11.1573 0.387575 0)
(11.3514 -0.225239 0)
(11.2361 -0.436178 0)
(11.2502 -0.150889 0)
(11.2586 0.176385 0)
(11.288 0.086972 0)
(11.6544 -0.586899 0)
(12.0416 -1.13197 0)
(11.8208 -0.726383 0)
(11.4335 -0.239032 0)
(9.95432 0.440044 0)
(10.3961 0.590134 0)
(10.6558 0.402522 0)
(10.8144 0.339099 0)
(11.124 0.332016 0)
(11.2059 0.00952469 0)
(10.843 0.123148 0)
(10.8571 0.362936 0)
(11.3284 0.124875 0)
(11.3277 -0.241901 0)
(10.9392 -0.182339 0)
(10.9062 0.0903192 0)
(11.2682 0.114281 0)
(11.679 -0.303203 0)
(11.7677 -0.883207 0)
(11.4262 -0.906998 0)
(11.0259 -0.359641 0)
(11.1239 -0.320241 0)
(10.0539 0.370932 0)
(10.3081 0.430276 0)
(10.6113 0.319606 0)
(10.6992 0.406094 0)
(10.8636 0.418526 0)
(10.8462 0.0336633 0)
(10.5758 -0.0769072 0)
(10.6554 0.240466 0)
(10.9625 0.253487 0)
(10.898 -0.159274 0)
(10.6976 -0.371852 0)
(10.8392 -0.294675 0)
(11.1298 -0.212483 0)
(11.2686 -0.200442 0)
(11.2112 -0.459467 0)
(10.9592 -0.731562 0)
(10.8674 -0.698176 0)
(11.3168 -0.92619 0)
(9.81429 0.182802 0)
(10.2066 0.386761 0)
(10.382 0.295202 0)
(10.5096 0.292442 0)
(10.8953 0.282886 0)
(11.0523 0.119078 0)
(10.7789 0.135031 0)
(10.7286 0.218737 0)
(11.0528 0.0463916 0)
(11.0692 -0.146133 0)
(10.7376 -0.142586 0)
(10.6646 -0.0592884 0)
(10.9203 -0.145277 0)
(11.1079 -0.440946 0)
(11.0394 -0.677592 0)
(10.962 -0.657098 0)
(11.1772 -0.608637 0)
(11.4583 -0.822812 0)
(9.75388 0.116456 0)
(9.87987 0.261799 0)
(10.1521 0.218788 0)
(10.2718 0.297433 0)
(10.464 0.280737 0)
(10.5667 0.0658426 0)
(10.5352 0.00969443 0)
(10.6527 0.155842 0)
(10.8356 0.149478 0)
(10.7701 -0.0727728 0)
(10.6471 -0.256669 0)
(10.7912 -0.325661 0)
(11.0371 -0.355551 0)
(11.053 -0.314569 0)
(10.8861 -0.371116 0)
(10.9809 -0.767123 0)
(11.2679 -1.11955 0)
(11.1446 -0.978034 0)
(9.90473 0.149298 0)
(9.9957 0.200259 0)
(10.0371 0.183361 0)
(10.0909 0.207168 0)
(10.3849 0.172894 0)
(10.5538 0.0693069 0)
(10.4494 0.0544592 0)
(10.4424 0.0921968 0)
(10.6355 -0.0172465 0)
(10.7451 -0.147515 0)
(10.678 -0.131682 0)
(10.6902 -0.109019 0)
(10.8404 -0.257458 0)
(10.9496 -0.541571 0)
(11.0606 -0.739562 0)
(11.1899 -0.774341 0)
(10.9976 -0.57608 0)
(10.7143 -0.344753 0)
(10.2445 0.162612 0)
(10.21 0.24139 0)
(10.2538 0.148786 0)
(10.2585 0.156073 0)
(10.2989 0.170364 0)
(10.3325 0.0723751 0)
(10.3244 0.0386358 0)
(10.4117 0.0939077 0)
(10.5585 0.0386157 0)
(10.5671 -0.127332 0)
(10.4967 -0.304371 0)
(10.6128 -0.427934 0)
(10.8383 -0.462747 0)
(10.8492 -0.441831 0)
(10.6258 -0.514955 0)
(10.5432 -0.736055 0)
(10.7123 -0.868821 0)
(11.039 -1.02144 0)
(9.87411 0.143872 0)
(9.95228 0.187895 0)
(10.0614 0.186055 0)
(10.0695 0.192096 0)
(10.1548 0.166375 0)
(10.2734 0.0545642 0)
(10.314 -0.0378867 0)
(10.3857 -0.073039 0)
(10.5136 -0.121873 0)
(10.5495 -0.192895 0)
(10.4783 -0.187907 0)
(10.4099 -0.176926 0)
(10.4354 -0.337695 0)
(10.5547 -0.589459 0)
(10.6416 -0.696558 0)
(10.64 -0.724049 0)
(10.6387 -0.837213 0)
(10.6854 -0.624642 0)
(9.874 0.161626 0)
(9.92091 0.0604877 0)
(10.0541 0.0271869 0)
(10.1582 0.0606461 0)
(10.254 0.0830645 0)
(10.3398 0.0255291 0)
(10.3959 -0.0203841 0)
(10.4391 -0.0184083 0)
(10.4509 -0.0360111 0)
(10.404 -0.137528 0)
(10.3617 -0.271279 0)
(10.4208 -0.407472 0)
(10.5826 -0.508191 0)
(10.625 -0.566139 0)
(10.4958 -0.668499 0)
(10.4296 -0.812782 0)
(10.4379 -0.935123 0)
(10.6258 -0.96069 0)
(10.1053 0.0198971 0)
(10.0604 0.00623223 0)
(10.0416 0.102921 0)
(9.98947 0.108047 0)
(10.0095 0.0577362 0)
(10.084 -0.0252613 0)
(10.1786 -0.0919731 0)
(10.3011 -0.130153 0)
(10.4392 -0.151727 0)
(10.5348 -0.19038 0)
(10.5489 -0.229542 0)
(10.5183 -0.289442 0)
(10.5417 -0.415995 0)
(10.575 -0.579373 0)
(10.5202 -0.654684 0)
(10.4338 -0.645497 0)
(10.4145 -0.941329 0)
(10.232 -1.40057 0)
(9.88023 0.019706 0)
(9.84844 0.061351 0)
(9.94028 0.0407602 0)
(10.0316 0.0242145 0)
(10.0847 -0.010714 0)
(10.0853 -0.105888 0)
(10.1207 -0.197072 0)
(10.2259 -0.24288 0)
(10.3213 -0.250144 0)
(10.3442 -0.280731 0)
(10.3563 -0.33287 0)
(10.4196 -0.385908 0)
(10.4871 -0.430573 0)
(10.4491 -0.499525 0)
(10.3423 -0.644578 0)
(10.2832 -0.794909 0)
(10.2697 -0.59222 0)
(10.2143 -0.340871 0)
(9.9545 -0.0404003 0)
(10.0275 -0.0863709 0)
(10.0887 -0.0462263 0)
(10.0984 0.00633672 0)
(10.0661 0.0156729 0)
(10.0043 -0.0613872 0)
(9.96993 -0.175141 0)
(9.99316 -0.280126 0)
(10.0147 -0.344936 0)
(10.023 -0.368295 0)
(10.0323 -0.352673 0)
(10.0597 -0.346781 0)
(10.1105 -0.3826 0)
(10.1703 -0.448341 0)
(10.1636 -0.496983 0)
(10.0793 -0.577182 0)
(10.0449 -0.853131 0)
(10.2012 -0.990956 0)
(10.0897 -0.181159 0)
(10.0992 -0.115888 0)
(10.0661 -0.00583445 0)
(10.0965 0.0607768 0)
(10.1358 0.0583116 0)
(10.0958 -0.0203219 0)
(10.0529 -0.134365 0)
(10.0432 -0.244341 0)
(9.99835 -0.315848 0)
(9.90413 -0.362715 0)
(9.84036 -0.407512 0)
(9.87406 -0.460433 0)
(9.9667 -0.508368 0)
(10.017 -0.577864 0)
(10.0089 -0.671386 0)
(10.0117 -0.750715 0)
(10.0225 -0.764882 0)
(9.95977 -0.849716 0)
(9.98819 -0.0495246 0)
(9.99434 -0.0370983 0)
(9.98363 -0.0363267 0)
(10.0976 -0.0330278 0)
(10.2429 -0.0206068 0)
(10.3007 -0.0139452 0)
(10.3055 -0.0362488 0)
(10.3146 -0.0973283 0)
(10.2942 -0.173455 0)
(10.2272 -0.257941 0)
(10.1848 -0.343892 0)
(10.2084 -0.431811 0)
(10.2664 -0.512932 0)
(10.2851 -0.585929 0)
(10.2415 -0.633642 0)
(10.1615 -0.66915 0)
(10.1049 -0.702065 0)
(10.0747 -0.709566 0)
(9.80022 -0.0203551 0)
(9.90311 -0.199133 0)
(9.88676 -0.197573 0)
(9.90071 -0.185391 0)
(10.0225 -0.172823 0)
(10.1286 -0.152882 0)
(10.2172 -0.133612 0)
(10.324 -0.146163 0)
(10.388 -0.197705 0)
(10.3625 -0.285142 0)
(10.312 -0.384807 0)
(10.2985 -0.475063 0)
(10.3164 -0.532245 0)
(10.2912 -0.561461 0)
(10.2126 -0.564536 0)
(10.1234 -0.555087 0)
(10.0682 -0.538513 0)
(10.0299 -0.535023 0)
(10.0513 -0.07813 0)
(10.01 -0.0967745 0)
(10.0006 -0.133765 0)
(10.0077 -0.181083 0)
(10.0406 -0.233166 0)
(10.0426 -0.272145 0)
(10.0528 -0.266695 0)
(10.112 -0.245006 0)
(10.1552 -0.234701 0)
(10.1181 -0.255292 0)
(10.0574 -0.298779 0)
(10.0293 -0.356837 0)
(10.0249 -0.408872 0)
(9.9756 -0.452012 0)
(9.88574 -0.474916 0)
(9.80723 -0.480024 0)
(9.78293 -0.474895 0)
(9.80287 -0.464805 0)
(9.9517 -0.0673392 0)
(10.0007 -0.142442 0)
(10.0794 -0.201706 0)
(10.1493 -0.23985 0)
(10.2084 -0.246931 0)
(10.2295 -0.237781 0)
(10.2477 -0.218574 0)
(10.299 -0.219229 0)
(10.3323 -0.240649 0)
(10.3048 -0.272368 0)
(10.2585 -0.298016 0)
(10.2455 -0.322392 0)
(10.2431 -0.344532 0)
(10.1903 -0.371088 0)
(10.0869 -0.399801 0)
(9.98859 -0.433503 0)
(9.94137 -0.467669 0)
(9.93145 -0.501863 0)
(10.1926 -0.208864 0)
(10.0858 -0.232982 0)
(10.0948 -0.233059 0)
(10.1468 -0.246885 0)
(10.2183 -0.262772 0)
(10.263 -0.270498 0)
(10.3045 -0.263815 0)
(10.3641 -0.262237 0)
(10.3886 -0.262975 0)
(10.3454 -0.260907 0)
(10.2915 -0.253399 0)
(10.2898 -0.254243 0)
(10.3167 -0.263579 0)
(10.3033 -0.286401 0)
(10.2448 -0.309846 0)
(10.1782 -0.336182 0)
(10.1483 -0.357705 0)
(10.1296 -0.377745 0)
(10.0021 -0.0449132 0)
(9.9507 -0.168099 0)
(10.0139 -0.315536 0)
(10.1816 -0.363552 0)
(10.368 -0.34976 0)
(10.4815 -0.320882 0)
(10.5257 -0.292747 0)
(10.5461 -0.276018 0)
(10.544 -0.264035 0)
(10.5128 -0.255089 0)
(10.506 -0.245454 0)
(10.5563 -0.247229 0)
(10.6287 -0.264129 0)
(10.6508 -0.298494 0)
(10.612 -0.330676 0)
(10.5464 -0.353325 0)
(10.4952 -0.360465 0)
(10.4412 -0.359548 0)
(10.0492 -0.181961 0)
(10.232 -0.256727 0)
(10.3788 -0.388472 0)
(10.489 -0.444428 0)
(10.5857 -0.407148 0)
(10.6309 -0.329166 0)
(10.6271 -0.271486 0)
(10.6182 -0.255379 0)
(10.6065 -0.272316 0)
(10.5782 -0.301222 0)
(10.5671 -0.317104 0)
(10.5868 -0.319599 0)
(10.6043 -0.31325 0)
(10.5632 -0.3052 0)
(10.4699 -0.283528 0)
(10.3683 -0.249948 0)
(10.296 -0.20974 0)
(10.2409 -0.179081 0)
(9.91886 -0.220783 0)
(10.1153 -0.420469 0)
(10.3554 -0.493387 0)
(10.501 -0.486159 0)
(10.5832 -0.419777 0)
(10.6349 -0.347089 0)
(10.6865 -0.298324 0)
(10.7536 -0.275881 0)
(10.7948 -0.270637 0)
(10.7799 -0.261447 0)
(10.747 -0.23572 0)
(10.7264 -0.21009 0)
(10.7099 -0.199286 0)
(10.659 -0.204057 0)
(10.5823 -0.203533 0)
(10.5084 -0.192964 0)
(10.461 -0.177083 0)
(10.4232 -0.168784 0)
(10.0086 -0.263397 0)
(10.1475 -0.514262 0)
(10.453 -0.581636 0)
(10.6951 -0.532863 0)
(10.777 -0.429066 0)
(10.7532 -0.360938 0)
(10.7209 -0.337409 0)
(10.7208 -0.331817 0)
(10.7286 -0.325844 0)
(10.7254 -0.305235 0)
(10.7309 -0.271223 0)
(10.7493 -0.240186 0)
(10.7592 -0.225025 0)
(10.7313 -0.219249 0)
(10.6701 -0.197726 0)
(10.6021 -0.16037 0)
(10.5431 -0.116963 0)
(10.49 -0.0882471 0)
(9.93619 -0.403692 0)
(10.3565 -0.662264 0)
(10.7013 -0.695238 0)
(10.8669 -0.570993 0)
(10.9311 -0.428198 0)
(10.956 -0.350529 0)
(10.9678 -0.331876 0)
(10.9426 -0.327324 0)
(10.8644 -0.316233 0)
(10.7455 -0.289524 0)
(10.637 -0.251606 0)
(10.5577 -0.213022 0)
(10.4966 -0.189442 0)
(10.4238 -0.17285 0)
(10.3455 -0.147375 0)
(10.2677 -0.112856 0)
(10.2031 -0.0793477 0)
(10.143 -0.0613319 0)
(10.0332 -0.55073 0)
(10.526 -0.852126 0)
(10.7423 -0.730097 0)
(10.6736 -0.545285 0)
(10.4807 -0.424237 0)
(10.2459 -0.364166 0)
(10.0053 -0.326976 0)
(9.7438 -0.280058 0)
(9.48346 -0.22958 0)
(9.22883 -0.187512 0)
(9.0301 -0.160592 0)
(8.87073 -0.144376 0)
(8.74509 -0.137333 0)
(8.61533 -0.122203 0)
(8.50733 -0.0944421 0)
(8.40826 -0.0565326 0)
(8.34638 -0.0230023 0)
(8.2888 -0.00218974 0)
(10.1419 -0.74631 0)
(9.84891 -0.994041 0)
(9.20839 -0.773552 0)
(8.49877 -0.521243 0)
(7.84177 -0.338946 0)
(7.26976 -0.22103 0)
(6.80053 -0.150347 0)
(6.42525 -0.104174 0)
(6.137 -0.074148 0)
(5.8985 -0.0546162 0)
(5.7182 -0.0456924 0)
(5.56553 -0.041197 0)
(5.44403 -0.0382594 0)
(5.33456 -0.0308513 0)
(5.26342 -0.0232445 0)
(5.20683 -0.0119074 0)
(5.19382 -0.00864095 0)
(5.16647 -0.00587862 0)
(8.31 -0.393018 0)
(5.98876 -0.339496 0)
(4.25951 -0.125248 0)
(3.21912 -0.0143692 0)
(2.64802 0.0241491 0)
(2.333 0.0315405 0)
(2.144 0.0240463 0)
(2.01594 0.0179888 0)
(1.92771 0.0150706 0)
(1.86471 0.0107857 0)
(1.81636 0.00359799 0)
(1.76679 -0.00223701 0)
(1.71743 -0.00679011 0)
(1.66901 -0.0092122 0)
(1.62837 -0.00959471 0)
(1.60085 -0.00572104 0)
(1.58021 -0.0108362 0)
(1.55678 0.0031462 0)
(-0.0206701 0.0352228 0)
(-0.0449115 0.0229597 0)
(-0.0612747 0.0195635 0)
(-0.0776433 0.0174761 0)
(-0.0912299 0.0150528 0)
(-0.102786 0.0121652 0)
(-0.111059 0.00885993 -1.80709e-20)
(-0.115754 0.00501577 1.79038e-20)
(-0.116315 0.000685734 0)
(-0.112336 -0.00398547 1.75578e-20)
(-0.103401 -0.00887219 0)
(-0.0884083 -0.0140325 0)
(-0.0677405 -0.0194701 0)
(-0.0410742 -0.0249516 -1.68235e-20)
(-0.00770094 -0.0304868 0)
(0.0320363 -0.0359783 0)
(0.0781079 -0.0413206 1.62429e-20)
(0.130544 -0.0464405 0)
(0.189219 -0.0512687 0)
(0.253925 -0.0557424 0)
(0.324365 -0.0598071 -1.54523e-20)
(0.400168 -0.0634132 0)
(0.480914 -0.0665184 -1.50579e-20)
(0.566158 -0.0690952 0)
(0.65539 -0.0711287 0)
(0.74804 -0.0726112 -1.44774e-20)
(0.843536 -0.0735439 0)
(0.941332 -0.0739369 1.41025e-20)
(1.04087 -0.0738045 0)
(1.14156 -0.0731762 -1.37401e-20)
(1.24281 -0.0720944 0)
(1.34411 -0.0705921 0)
(1.44501 -0.0686947 0)
(1.545 -0.0664489 0)
(1.64359 -0.0639182 0)
(1.74044 -0.0611477 1.274e-20)
(1.83524 -0.0581632 0)
(1.92765 -0.0550035 -2.48728e-20)
(2.01732 -0.051728 0)
(2.10407 -0.0483853 2.42938e-20)
(2.18776 -0.0449974 0)
(2.26823 -0.0415861 0)
(2.34527 -0.0381913 -2.34735e-20)
(2.41884 -0.0348521 0)
(2.48893 -0.0315873 -2.29554e-20)
(2.55552 -0.0284055 2.27041e-20)
(2.61853 -0.0253239 0)
(2.67799 -0.0223653 2.22154e-20)
(2.73402 -0.0195423 2.19775e-20)
(2.78665 -0.0168569 0)
(2.83592 -0.0143125 0)
(2.88189 -0.0119161 0)
(2.92472 -0.00967102 0)
(2.96452 -0.00757538 0)
(3.00137 -0.00562654 -2.06249e-20)
(3.03534 -0.00382232 0)
(3.0666 -0.00215856 2.01975e-20)
(3.09529 -0.000629346 0)
(3.12151 0.000769869 0)
(3.14535 0.00204367 -1.95739e-20)
(3.16693 0.00319976 0)
(3.18642 0.00424703 1.91682e-20)
(3.20391 0.00519131 0)
(3.21949 0.00603649 0)
(3.23327 0.00679014 0)
(3.24538 0.00746295 -1.83778e-20)
(3.25591 0.008062 0)
(3.26495 0.0085898 0)
(3.27258 0.00905083 -1.7801e-20)
(3.27891 0.00945503 0)
(3.28402 0.00981131 -1.74232e-20)
(3.288 0.0101151 0)
(3.29094 0.0103539 0)
(3.29285 0.0104875 0)
(3.2938 0.0105655 1.66826e-20)
(3.29388 0.0106091 0)
(3.29314 0.0106273 0)
(3.29164 0.0106244 1.61394e-20)
(3.28943 0.0106027 1.59605e-20)
(3.28657 0.0105667 0)
(3.28311 0.010519 1.56061e-20)
(3.27908 0.0104569 0)
(3.27451 0.0103821 3.05119e-20)
(3.26945 0.010298 0)
(3.26393 0.0102351 2.98201e-20)
(3.25797 0.0101733 0)
(3.25159 0.0101057 -2.91366e-20)
(3.24482 0.0100294 0)
(3.23769 0.00994772 0)
(3.23025 0.00986564 0)
(3.2225 0.00978305 2.77941e-20)
(3.21446 0.00969675 0)
(3.20613 0.00960476 -2.7135e-20)
(3.19754 0.00950938 0)
(3.18873 0.00941544 2.6484e-20)
(3.17969 0.00932362 2.61615e-20)
(3.17044 0.00923043 2.5841e-20)
(3.16099 0.00913419 0)
(3.15134 0.00903679 0)
(3.14153 0.00894126 0)
(3.13156 0.00884905 0)
(3.12144 0.00875895 0)
(3.11115 0.0086683 0)
(3.10072 0.008576 0)
(3.09017 0.00848382 0)
(3.07949 0.00839434 -2.30451e-20)
(3.06871 0.00830805 -2.27441e-20)
(3.0578 0.00822293 0)
(3.04678 0.00813683 0)
(3.03566 0.00804954 0)
(3.02445 0.00796282 -2.15593e-20)
(3.01315 0.00787851 0)
(3.00177 0.00779683 0)
(2.9903 0.00771635 0)
(2.97875 0.0076357 0)
(2.96713 0.00755472 2.01203e-20)
(2.95543 0.0074742 0)
(2.94367 0.00739518 0)
(2.93185 0.00731795 -1.92788e-20)
(2.91997 0.00724206 1.90018e-20)
(2.90802 0.00716689 0)
(2.89602 0.00709197 1.84532e-20)
(2.88396 0.00701706 0)
(2.87185 0.00694221 -1.79115e-20)
(2.85969 0.00686776 0)
(2.84748 0.00679423 0)
(2.83524 0.00672218 0)
(2.82295 0.00665172 0)
(2.81061 0.00658223 0)
(2.79823 0.00651277 3.26543e-20)
(2.78581 0.00644264 3.21377e-20)
(2.77335 0.00637203 0)
(2.76085 0.00630187 0)
(2.74833 0.0062331 0)
(2.73577 0.00616603 -3.01034e-20)
(2.72317 0.00609991 0)
(2.71054 0.00603356 0)
(2.69788 0.00596624 0)
(2.68518 0.00589832 -2.8119e-20)
(2.67246 0.00583083 2.76304e-20)
(2.65972 0.00576449 0)
(2.64694 0.00569924 0)
(2.63415 0.0056344 2.61824e-20)
(2.62132 0.00556934 2.57055e-20)
(2.60847 0.00550379 0)
(2.5956 0.00543791 0)
(2.5827 0.00537224 -2.42917e-20)
(2.56979 0.00530734 2.3826e-20)
(2.55686 0.00524333 0)
(2.5439 0.00517984 0)
(2.53092 0.00511634 2.2445e-20)
(2.51792 0.00505272 0)
(2.5049 0.00498931 0)
(2.49185 0.00492601 2.10875e-20)
(2.47878 0.0048629 0)
(2.46568 0.00480071 2.01952e-20)
(2.45256 0.00473966 0)
(2.43941 0.00468001 0)
(2.42621 0.00462211 0)
(2.41296 0.00456562 -1.84393e-20)
(2.39966 0.00451086 0)
(2.38628 0.00445865 0)
(2.37281 0.00440913 0)
(2.35923 0.00436446 0)
(2.34551 0.00432555 0)
(2.3316 0.00429428 0)
(2.31745 0.00427444 -1.54501e-20)
(2.30301 0.00426248 -1.50303e-20)
(2.28809 0.00428636 0)
(2.27282 0.00428737 0)
(2.25626 0.00445058 0)
(2.24012 0.00439161 1.3361e-20)
(2.21918 0.00497986 0)
(2.20368 0.00469175 -2.5051e-20)
(2.17104 0.00618496 2.42215e-20)
(2.15889 0.0057259 2.33607e-20)
(2.10513 0.00906198 -2.25203e-20)
(2.07772 0.00841423 2.1627e-20)
(2.0227 0.0277771 -2.07349e-20)
(1.83933 0.00347237 0)
(-0.0234036 0.105683 0)
(-0.0474048 0.062532 0)
(-0.0643614 0.0515471 3.74696e-20)
(-0.0805457 0.0450365 0)
(-0.0942797 0.037544 -3.6857e-20)
(-0.105607 0.0285554 -3.65379e-20)
(-0.113636 0.0180622 -1.81379e-20)
(-0.118077 0.00593241 -1.79057e-20)
(-0.117819 -0.00754081 0)
(-0.112304 -0.0224452 -1.75602e-20)
(-0.101499 -0.0383143 0)
(-0.084526 -0.0550518 0)
(-0.0611794 -0.0726311 3.40812e-20)
(-0.0311245 -0.0905655 1.68272e-20)
(0.00611268 -0.108744 -3.33162e-20)
(0.0504368 -0.127114 -3.2927e-20)
(0.101803 -0.14495 -1.62477e-20)
(0.160205 -0.162232 0)
(0.225531 -0.178754 0)
(0.297579 -0.194314 0)
(0.376073 -0.208731 -1.54841e-20)
(0.460657 -0.221851 0)
(0.550909 -0.233557 4.52154e-20)
(0.64637 -0.243765 0)
(0.746545 -0.252407 0)
(0.850885 -0.259438 1.44863e-20)
(0.95882 -0.264859 0)
(1.0698 -0.268708 -1.41124e-20)
(1.18329 -0.271022 -2.78674e-20)
(1.2987 -0.271843 1.3751e-20)
(1.41544 -0.271256 0)
(1.53304 -0.269373 0)
(1.65104 -0.2663 0)
(1.76894 -0.262132 -2.61454e-20)
(1.88625 -0.256982 -2.58239e-20)
(2.00262 -0.250973 -1.27537e-20)
(2.11775 -0.244224 0)
(2.23128 -0.236846 2.49021e-20)
(2.34287 -0.228949 0)
(2.45229 -0.220632 -2.43247e-20)
(2.55939 -0.211992 0)
(2.66397 -0.203121 0)
(2.76582 -0.194108 2.35065e-20)
(2.86481 -0.185026 0)
(2.96091 -0.175933 6.89753e-20)
(3.05404 -0.16689 -2.27388e-20)
(3.1441 -0.157956 0)
(3.23105 -0.149179 -2.2251e-20)
(3.31492 -0.140591 -2.20135e-20)
(3.39571 -0.13222 0)
(3.4734 -0.124097 0)
(3.54801 -0.116246 0)
(3.61961 -0.108684 0)
(3.68825 -0.101418 0)
(3.75396 -0.094457 2.06622e-20)
(3.81678 -0.0878062 4.09028e-20)
(3.87681 -0.0814693 -2.0235e-20)
(3.93413 -0.0754452 0)
(3.9888 -0.0697296 3.96418e-20)
(4.04088 -0.0643159 -1.96188e-20)
(4.09045 -0.0591971 0)
(4.13761 -0.0543669 -1.92055e-20)
(4.18245 -0.0498189 0)
(4.22502 -0.0455429 0)
(4.26541 -0.0415244 -3.72262e-20)
(4.30372 -0.0377503 1.84144e-20)
(4.34002 -0.0342125 -3.64472e-20)
(4.37439 -0.0309037 3.6062e-20)
(4.40689 -0.0278117 1.78369e-20)
(4.43762 -0.0249207 0)
(4.46665 -0.0222199 1.74586e-20)
(4.49405 -0.0197089 0)
(4.51986 -0.0173845 0)
(4.54415 -0.0152566 0)
(4.56705 -0.0132861 1.6721e-20)
(4.5886 -0.0114544 0)
(4.60885 -0.00975493 3.27097e-20)
(4.62785 -0.0081796 -4.85215e-20)
(4.64567 -0.00671683 -1.59934e-20)
(4.66236 -0.0053562 0)
(4.67799 -0.00409183 -1.56383e-20)
(4.69259 -0.00292145 0)
(4.70621 -0.00184261 -3.05749e-20)
(4.71894 -0.000841769 0)
(4.7308 6.1733e-05 -2.98816e-20)
(4.74181 0.000892283 5.90811e-20)
(4.752 0.00165603 2.91967e-20)
(4.76142 0.00235759 0)
(4.77013 0.00300311 0)
(4.77817 0.00360214 0)
(4.78556 0.00415591 -2.78514e-20)
(4.79234 0.00466392 0)
(4.79853 0.00513057 2.7191e-20)
(4.80417 0.00555966 0)
(4.80929 0.00595487 -7.96188e-20)
(4.81392 0.00631918 -2.62154e-20)
(4.81808 0.00665144 -2.58943e-20)
(4.82179 0.00695158 0)
(4.82507 0.00722393 0)
(4.82796 0.0074734 0)
(4.83047 0.00770261 0)
(4.83262 0.00791239 0)
(4.83443 0.0081024 -4.80198e-20)
(4.8359 0.00827256 -4.7405e-20)
(4.83707 0.00842474 0)
(4.83796 0.00856191 2.30927e-20)
(4.83857 0.00868624 2.27911e-20)
(4.83891 0.00879794 0)
(4.839 0.00889626 4.43889e-20)
(4.83884 0.00898116 0)
(4.83847 0.00905425 -2.16053e-20)
(4.83788 0.00911796 0)
(4.83709 0.00917392 0)
(4.8361 0.0092221 4.14679e-20)
(4.83492 0.00926164 0)
(4.83356 0.0092924 -2.01622e-20)
(4.83203 0.00931521 0)
(4.83034 0.00933178 0)
(4.8285 0.0093435 -1.93199e-20)
(4.8265 0.00935075 -1.90415e-20)
(4.82436 0.00935331 0)
(4.82208 0.00935077 1.84926e-20)
(4.81967 0.00934291 0)
(4.81712 0.00932996 -1.79499e-20)
(4.81446 0.00931253 -3.53614e-20)
(4.81167 0.00929148 0)
(4.80877 0.00926798 0)
(4.80576 0.00924303 0)
(4.80263 0.0092168 0)
(4.7994 0.00918855 -3.27236e-20)
(4.79606 0.00915713 -9.6619e-20)
(4.79262 0.00912195 0)
(4.78908 0.00908381 0)
(4.78544 0.00904443 0)
(4.78171 0.00900528 3.01679e-20)
(4.77788 0.00896655 0)
(4.77395 0.00892694 0)
(4.76993 0.00888484 -5.73451e-20)
(4.76581 0.00883975 -2.81804e-20)
(4.76161 0.00879283 -2.76902e-20)
(4.75731 0.00874571 0)
(4.75293 0.00869921 0)
(4.74845 0.00865303 -2.62394e-20)
(4.74388 0.0086061 2.57621e-20)
(4.73922 0.00855762 0)
(4.73447 0.00850751 0)
(4.72962 0.00845658 2.43452e-20)
(4.72468 0.00840616 -7.16361e-20)
(4.71966 0.00835705 0)
(4.71453 0.00830923 0)
(4.70931 0.008262 -2.24949e-20)
(4.70399 0.00821479 0)
(4.69856 0.00816801 -4.31715e-20)
(4.69303 0.0081222 2.1135e-20)
(4.68738 0.00807785 0)
(4.68163 0.00803625 -2.02408e-20)
(4.67576 0.00799896 -3.95949e-20)
(4.66976 0.00796706 0)
(4.66362 0.00794268 0)
(4.65732 0.00792695 1.84814e-20)
(4.65086 0.0079209 0)
(4.64421 0.00792854 -3.52311e-20)
(4.63734 0.00795243 0)
(4.63022 0.00799926 0)
(4.62281 0.0080746 0)
(4.61505 0.00819123 0)
(4.60686 0.00835612 1.54862e-20)
(4.59818 0.00858681 1.50655e-20)
(4.58867 0.00893129 0)
(4.57888 0.00927962 0)
(4.56646 0.0102252 0)
(4.55655 0.0101128 -1.33927e-20)
(4.53592 0.0138342 0)
(4.53037 0.00976158 2.51106e-20)
(4.49032 0.0241764 -2.42789e-20)
(4.49161 0.00604337 -2.34162e-20)
(4.43053 0.0482667 -2.25875e-20)
(4.399 0.00439743 -2.16778e-20)
(4.36522 0.0992552 -2.08478e-20)
(4.17805 0.0457205 0)
(-0.0269676 0.187035 0)
(-0.0567476 0.110534 0)
(-0.0782548 0.0915078 -3.74687e-20)
(-0.0991319 0.0805649 -3.72847e-20)
(-0.117497 0.0679468 3.6857e-20)
(-0.133259 0.0525805 3.65379e-20)
(-0.145654 0.0344994 -1.10399e-22)
(-0.153925 0.0136863 0)
(-0.157427 -0.00939723 0)
(-0.155411 -0.0349108 0)
(-0.147086 -0.0623476 0)
(-0.132213 -0.0913485 0)
(-0.110401 -0.12163 -1.02418e-19)
(-0.0811574 -0.152648 0)
(-0.0445997 -0.18411 3.33169e-20)
(0.000117124 -0.215503 3.29278e-20)
(0.0529099 -0.246638 0)
(0.112844 -0.276493 0)
(0.180156 -0.305017 0)
(0.254608 -0.331851 0)
(0.335846 -0.356696 3.09444e-20)
(0.42342 -0.379291 0)
(0.516822 -0.399434 -3.01519e-20)
(0.615548 -0.416995 0)
(0.719056 -0.431883 0)
(0.826705 -0.444043 0)
(0.937827 -0.453484 -5.72564e-20)
(1.05186 -0.460262 0)
(1.16826 -0.464451 2.78705e-20)
(1.28642 -0.46617 -5.50469e-20)
(1.40568 -0.46558 0)
(1.52552 -0.462847 0)
(1.64555 -0.458129 0)
(1.76528 -0.451613 2.61499e-20)
(1.88424 -0.443516 2.58287e-20)
(2.00204 -0.434039 0)
(2.11841 -0.423356 0)
(2.23303 -0.411643 -4.98316e-20)
(2.34562 -0.399088 -4.9248e-20)
(2.45595 -0.385869 4.86781e-20)
(2.56389 -0.372133 0)
(2.66924 -0.358016 0)
(2.77185 -0.343648 0)
(2.87165 -0.329153 0)
(2.96859 -0.314636 -4.60009e-20)
(3.06261 -0.300187 -4.55126e-20)
(3.15361 -0.285881 4.50214e-20)
(3.2416 -0.271786 0)
(3.32663 -0.257966 0)
(3.4087 -0.244475 0)
(3.48778 -0.231351 0)
(3.56389 -0.218617 -4.26861e-20)
(3.63713 -0.2063 0)
(3.70756 -0.194424 0)
(3.77518 -0.183008 -4.13645e-20)
(3.84005 -0.172054 -4.09225e-20)
(3.90225 -0.161558 0)
(3.96186 -0.151525 8.01795e-20)
(4.01895 -0.141959 -3.96624e-20)
(4.07356 -0.132852 3.92509e-20)
(4.12577 -0.124189 0)
(4.17566 -0.115959 0)
(4.22332 -0.108158 0)
(4.2688 -0.100774 0)
(4.31218 -0.0937887 3.72479e-20)
(4.35355 -0.0871837 7.37319e-20)
(4.39296 -0.0809487 3.64691e-20)
(4.43049 -0.0750738 -3.6084e-20)
(4.46621 -0.0695411 0)
(4.50019 -0.0643311 7.06586e-20)
(4.53251 -0.0594314 6.99035e-20)
(4.56322 -0.0548312 6.91534e-20)
(4.59238 -0.0505135 -6.84081e-20)
(4.62007 -0.0464352 0)
(4.64636 -0.0425947 -1.00392e-19)
(4.67131 -0.0389859 0)
(4.69496 -0.0356029 3.27425e-20)
(4.71736 -0.0324341 3.23711e-20)
(4.73858 -0.029462 0)
(4.75869 -0.0266722 0)
(4.77771 -0.0240574 6.26123e-20)
(4.7957 -0.0216113 0)
(4.81271 -0.0193275 6.12071e-20)
(4.82877 -0.0171916 0)
(4.84394 -0.01523 -5.98188e-20)
(4.85829 -0.0134113 -1.18255e-19)
(4.87182 -0.0117213 0)
(4.88459 -0.0101469 0)
(4.89663 -0.00867407 0)
(4.90799 -0.00729881 -5.64205e-20)
(4.9187 -0.00601721 0)
(4.92878 -0.00482923 -5.509e-20)
(4.93827 -0.0037251 0)
(4.94719 -0.00269177 0)
(4.9556 -0.00172702 1.06246e-19)
(4.9635 -0.000829958 0)
(4.97093 2.02646e-08 5.18347e-20)
(4.9779 0.000766444 0)
(4.98445 0.00147715 5.05606e-20)
(4.9906 0.00213895 0)
(4.99638 0.00275438 0)
(5.0018 0.00332416 0)
(5.00688 0.0038496 1.44178e-19)
(5.01163 0.00433363 4.74426e-20)
(5.01609 0.00478033 0)
(5.02027 0.00519303 0)
(5.02419 0.00557343 0)
(5.02785 0.00592234 0)
(5.03127 0.00624106 -4.44248e-20)
(5.03447 0.00653208 8.76686e-20)
(5.03746 0.00679855 4.32443e-20)
(5.04026 0.00704286 -8.53225e-20)
(5.04288 0.00726595 -8.41608e-20)
(5.04532 0.00746795 -4.15019e-20)
(5.04759 0.00764943 0)
(5.04971 0.00781212 -8.07197e-20)
(5.05169 0.0079583 0)
(5.05353 0.0080903 7.84622e-20)
(5.05525 0.0082094 3.86711e-20)
(5.05686 0.00831577 0)
(5.05835 0.00840935 -7.51297e-20)
(5.05973 0.00849024 -3.70156e-20)
(5.06102 0.00855911 0)
(5.06221 0.00861737 -3.5931e-20)
(5.06332 0.00866659 1.06176e-19)
(5.06435 0.00870795 0)
(5.06531 0.00874235 0)
(5.0662 0.0087703 0)
(5.06702 0.00879177 0)
(5.06778 0.00880649 6.5506e-20)
(5.06848 0.00881442 6.4469e-20)
(5.06912 0.00881615 0)
(5.06971 0.00881311 0)
(5.07026 0.00880682 0)
(5.07077 0.00879812 0)
(5.07123 0.00878666 0)
(5.07165 0.00877122 0)
(5.07202 0.00875099 5.73963e-20)
(5.07236 0.00872656 -7.22193e-25)
(5.07267 0.00869969 0)
(5.07294 0.00867189 0)
(5.07319 0.00864337 5.34899e-20)
(5.0734 0.00861335 0)
(5.07358 0.00858079 -5.15709e-20)
(5.07373 0.00854515 -5.06208e-20)
(5.07385 0.0085071 0)
(5.07394 0.00846838 0)
(5.07401 0.00843072 4.7802e-20)
(5.07405 0.00839463 9.37479e-20)
(5.07406 0.00835948 0)
(5.07405 0.00832462 0)
(5.07399 0.00828995 0)
(5.07391 0.00825599 4.32126e-20)
(5.07379 0.00822386 -4.23103e-20)
(5.07363 0.00819556 0)
(5.07344 0.00817256 -8.1042e-20)
(5.0732 0.00815671 -3.96339e-20)
(5.0729 0.00815026 7.75019e-20)
(5.07254 0.00815566 0)
(5.07211 0.00817588 0)
(5.07159 0.00821371 7.22616e-20)
(5.07096 0.00827513 3.5266e-20)
(5.07021 0.00836698 0)
(5.06928 0.00849819 0)
(5.06817 0.008681 0)
(5.06677 0.00893016 0)
(5.06511 0.0092703 6.20101e-20)
(5.06291 0.00971556 0)
(5.06045 0.0103316 0)
(5.05674 0.011105 0)
(5.05313 0.0123171 0)
(5.04668 0.0133919 0)
(5.04085 0.0167434 0)
(5.03078 0.0159851 5.02984e-20)
(5.0177 0.0289948 0)
(5.00642 0.016324 0)
(4.97479 0.0604811 9.04492e-20)
(4.95819 0.0236184 -4.35422e-20)
(4.91502 0.121455 4.16742e-20)
(4.84762 0.0994018 -4.0115e-20)
(-0.0315058 0.284526 0)
(-0.0701256 0.172131 7.60972e-20)
(-0.0987371 0.143454 0)
(-0.126918 0.1278 3.72843e-20)
(-0.152642 0.109565 0)
(-0.175348 0.0872128 0)
(-0.194246 0.0606941 -3.66369e-20)
(-0.208454 0.030261 0)
(-0.217211 -0.00384331 0)
(-0.21989 -0.0414275 0)
(-0.215441 -0.0817994 0)
(-0.203481 -0.124778 0)
(-0.183469 -0.169493 1.36922e-19)
(-0.155088 -0.215204 6.78038e-20)
(-0.11798 -0.261734 -6.70096e-20)
(-0.0724422 -0.307609 0)
(-0.0176302 -0.353087 0)
(0.046159 -0.397043 0)
(0.117526 -0.438867 0)
(0.19671 -0.477982 0)
(0.283226 -0.514053 6.2103e-20)
(0.376516 -0.546722 6.12846e-20)
(0.475918 -0.575719 -6.04717e-20)
(0.580772 -0.60088 5.96662e-20)
(0.690427 -0.622089 0)
(0.804155 -0.639294 0)
(0.921216 -0.652538 5.72566e-20)
(1.04096 -0.661933 0)
(1.16274 -0.667625 0)
(1.28583 -0.669803 5.50472e-20)
(1.40962 -0.668697 5.43705e-20)
(1.53364 -0.664554 5.36753e-20)
(1.65742 -0.657649 0)
(1.78039 -0.64828 0)
(1.90207 -0.63673 -5.16895e-20)
(2.0222 -0.62326 0)
(2.14056 -0.608138 0)
(2.25678 -0.591647 4.98324e-20)
(2.37054 -0.574048 -4.92801e-20)
(2.4817 -0.555551 4.87101e-20)
(2.5902 -0.536351 0)
(2.69588 -0.516655 0)
(2.79858 -0.496662 9.41238e-20)
(2.89821 -0.47652 0)
(2.99481 -0.456349 9.20615e-20)
(3.08835 -0.436268 1.36575e-19)
(3.17878 -0.416397 -1.35102e-19)
(3.26609 -0.396836 8.91143e-20)
(3.35031 -0.377651 0)
(3.4315 -0.358897 0)
(3.50969 -0.34063 8.63145e-20)
(3.5849 -0.322896 4.26883e-20)
(3.6572 -0.305731 0)
(3.72665 -0.289156 0)
(3.79332 -0.273185 4.1367e-20)
(3.85725 -0.257825 8.19053e-20)
(3.91854 -0.243086 0)
(3.97725 -0.228973 -8.01852e-20)
(4.03346 -0.215481 7.93818e-20)
(4.08722 -0.202597 -7.85575e-20)
(4.13863 -0.190306 0)
(4.18777 -0.178603 0)
(4.2347 -0.167478 0)
(4.27949 -0.156914 0)
(4.32222 -0.146887 0)
(4.36298 -0.137378 -7.37391e-20)
(4.40183 -0.128373 0)
(4.43883 -0.119855 0)
(4.47406 -0.111802 0)
(4.50759 -0.104192 -1.41351e-19)
(4.53949 -0.0970086 -6.99113e-20)
(4.56982 -0.0902331 -6.91613e-20)
(4.59864 -0.0838423 1.36848e-19)
(4.62603 -0.0778128 -6.76907e-20)
(4.65203 -0.0721318 6.69402e-20)
(4.67672 -0.0667885 0)
(4.70013 -0.0617689 -6.54828e-20)
(4.72232 -0.0570526 0)
(4.74337 -0.0526187 0)
(4.76332 -0.0484522 0)
(4.7822 -0.0445434 -1.25252e-19)
(4.80007 -0.0408808 6.1926e-20)
(4.81697 -0.0374484 6.1234e-20)
(4.83295 -0.0342386 1.21057e-19)
(4.84808 -0.0312154 1.795e-19)
(4.86238 -0.0283854 5.914e-20)
(4.87588 -0.0257378 0)
(4.88863 -0.0232565 1.15567e-19)
(4.90067 -0.0209308 0)
(4.91204 -0.0187542 1.69302e-19)