/*--------------------------------*- C++ -*----------------------------------*\
| =========                 |                                                 |
| \\      /  F ield         | OpenFOAM: The Open Source CFD Toolbox           |
|  \\    /   O peration     | Version:  2.1.x                                 |
|   \\  /    A nd           | Web:      www.OpenFOAM.org                      |
|    \\/     M anipulation  |                                                 |
\*---------------------------------------------------------------------------*/
FoamFile
{
    version     2.0;
    format      ascii;
    class       volVectorField;
    location    "0.003";
    object      U_0;
}
// * * * * * * * * * * * * * * * * * * * * * * * * * * * * * * * * * * * * * //

dimensions      [0 1 -1 0 0 0 0];

internalField   nonuniform List<vector> 
12225
(
(7.1485 0.39513 0)
(4.39652 0.181665 0)
(3.02224 0.0239363 0)
(2.43654 -0.0153771 0)
(2.08776 -0.00819434 0)
(2.02388 -0.0105637 0)
(2.0228 -0.0222855 0)
(2.03332 0.00181643 0)
(1.88051 0.0143228 0)
(1.927 -0.0163495 0)
(2.15336 -0.0341194 0)
(2.23883 -0.000249205 0)
(2.21096 0.0168696 0)
(2.07488 0.00938392 0)
(2.44821 -0.0250184 0)
(2.5653 -0.0617236 0)
(3.272 -0.0309543 0)
(3.0414 -0.0668367 0)
(9.73486 0.97534 0)
(8.96057 0.843911 0)
(7.85569 0.426857 0)
(7.02348 0.201758 0)
(6.15768 0.120524 0)
(5.98762 0.0339329 0)
(5.77216 -0.0225064 0)
(5.57891 0.0318721 0)
(5.35555 0.0688539 0)
(5.46221 -0.0866555 0)
(5.73183 -0.111293 0)
(5.71578 -0.0148235 0)
(5.81919 0.0684522 0)
(5.52099 -0.0767296 0)
(6.18399 -0.204506 0)
(6.45551 -0.252321 0)
(7.26974 -0.198229 0)
(7.4478 -0.11965 0)
(10.1444 0.757635 0)
(10.671 0.861378 0)
(10.4139 0.538051 0)
(10.1213 0.384603 0)
(9.22871 0.299101 0)
(9.18139 0.095863 0)
(9.02097 0.0485913 0)
(8.64588 0.137075 0)
(8.26877 0.11749 0)
(8.44819 -0.161236 0)
(8.55725 -0.189048 0)
(8.621 0.0022385 0)
(8.70651 0.129516 0)
(8.47043 -0.0748042 0)
(8.78154 -0.47503 0)
(9.12459 -0.548173 0)
(9.98329 -0.425453 0)
(10.2265 -0.188108 0)
(9.9703 0.610577 0)
(10.5627 0.865574 0)
(10.9803 0.545954 0)
(11.4628 0.396008 0)
(10.7842 0.382222 0)
(10.8198 0.101096 0)
(11.0588 0.0906727 0)
(10.8347 0.299879 0)
(10.3979 0.237925 0)
(10.4404 -0.2216 0)
(10.4141 -0.244071 0)
(10.6608 -0.0174274 0)
(10.8277 0.157357 0)
(10.6548 -0.0480266 0)
(10.6701 -0.559821 0)
(11.013 -0.899968 0)
(11.6566 -0.75038 0)
(11.4995 -0.235654 0)
(9.9417 0.560114 0)
(10.5335 0.633271 0)
(11.0643 0.364949 0)
(11.2166 0.491116 0)
(10.9659 0.528316 0)
(11.2157 -0.0486711 0)
(11.2456 -0.074473 0)
(11.025 0.436184 0)
(11.1896 0.364129 0)
(11.3753 -0.256807 0)
(11.2493 -0.429573 0)
(11.2604 -0.11781 0)
(11.2698 0.19394 0)
(11.3256 0.0590074 0)
(11.714 -0.646199 0)
(12.0662 -1.13359 0)
(11.7958 -0.666121 0)
(11.456 -0.236196 0)
(9.96185 0.397847 0)
(10.4104 0.570073 0)
(10.6696 0.39629 0)
(10.839 0.341339 0)
(11.1535 0.322983 0)
(11.2113 0.00769047 0)
(10.8448 0.143767 0)
(10.8903 0.36435 0)
(11.3625 0.102395 0)
(11.3274 -0.247883 0)
(10.9362 -0.161081 0)
(10.9336 0.108146 0)
(11.3221 0.0953057 0)
(11.7228 -0.355042 0)
(11.7673 -0.906583 0)
(11.4023 -0.867213 0)
(11.0294 -0.318862 0)
(11.1945 -0.343887 0)
(10.0705 0.332649 0)
(10.3306 0.407377 0)
(10.6297 0.318241 0)
(10.7175 0.414984 0)
(10.8817 0.408428 0)
(10.8508 0.018317 0)
(10.5848 -0.0648866 0)
(10.6851 0.257761 0)
(10.9854 0.240294 0)
(10.9027 -0.183484 0)
(10.7113 -0.374482 0)
(10.8729 -0.283143 0)
(11.1651 -0.202448 0)
(11.2889 -0.207588 0)
(11.2094 -0.483694 0)
(10.9549 -0.741376 0)
(10.9079 -0.707753 0)
(11.3817 -0.969045 0)
(9.85355 0.167326 0)
(10.2362 0.371051 0)
(10.4011 0.289 0)
(10.5391 0.295583 0)
(10.9292 0.280803 0)
(11.0632 0.118136 0)
(10.782 0.142997 0)
(10.755 0.217646 0)
(11.0817 0.0343966 0)
(11.0706 -0.14894 0)
(10.7328 -0.133164 0)
(10.6845 -0.0555202 0)
(10.9561 -0.162851 0)
(11.1309 -0.466103 0)
(11.0462 -0.682031 0)
(10.9841 -0.64454 0)
(11.2232 -0.613326 0)
(11.4627 -0.848556 0)
(9.76128 0.105303 0)
(9.90877 0.248059 0)
(10.1775 0.215959 0)
(10.2948 0.302817 0)
(10.4875 0.277101 0)
(10.585 0.0596938 0)
(10.5552 0.0168689 0)
(10.6792 0.164991 0)
(10.8541 0.143509 0)
(10.7785 -0.087056 0)
(10.6636 -0.264936 0)
(10.8215 -0.325677 0)
(11.0631 -0.348918 0)
(11.0615 -0.311346 0)
(10.8975 -0.393882 0)
(11.0154 -0.805356 0)
(11.2911 -1.1252 0)
(11.122 -0.953404 0)
(9.9136 0.147615 0)
(10.0207 0.1869 0)
(10.057 0.179284 0)
(10.1184 0.209185 0)
(10.4162 0.17286 0)
(10.5713 0.0699985 0)
(10.461 0.0593452 0)
(10.4647 0.0925396 0)
(10.6635 -0.0226131 0)
(10.7642 -0.147557 0)
(10.6906 -0.1251 0)
(10.7093 -0.110733 0)
(10.8664 -0.276306 0)
(10.9802 -0.564453 0)
(11.0926 -0.745889 0)
(11.1984 -0.754684 0)
(10.9818 -0.545872 0)
(10.725 -0.39546 0)
(10.2487 0.148096 0)
(10.2298 0.226705 0)
(10.2754 0.143026 0)
(10.2771 0.159523 0)
(10.3165 0.172524 0)
(10.3487 0.0732989 0)
(10.3435 0.044138 0)
(10.4364 0.0976519 0)
(10.5798 0.0335274 0)
(10.5808 -0.138845 0)
(10.5146 -0.314917 0)
(10.6412 -0.430711 0)
(10.8629 -0.457227 0)
(10.8553 -0.440822 0)
(10.6273 -0.528959 0)
(10.5642 -0.751181 0)
(10.7579 -0.879155 0)
(11.0698 -1.05067 0)
(9.88933 0.0991211 0)
(9.9905 0.174626 0)
(10.0895 0.185449 0)
(10.0915 0.194409 0)
(10.1781 0.166425 0)
(10.2944 0.0527051 0)
(10.3338 -0.0382747 0)
(10.409 -0.0727452 0)
(10.5357 -0.122682 0)
(10.5641 -0.190876 0)
(10.4866 -0.183286 0)
(10.4193 -0.180464 0)
(10.4547 -0.35415 0)
(10.5823 -0.604485 0)
(10.6648 -0.700107 0)
(10.6549 -0.726087 0)
(10.655 -0.821218 0)
(10.6922 -0.591449 0)
(9.91828 0.141167 0)
(9.97538 0.0574821 0)
(10.0917 0.0318469 0)
(10.186 0.0684495 0)
(10.2779 0.0882457 0)
(10.3604 0.0284878 0)
(10.4142 -0.0158806 0)
(10.4558 -0.0141304 0)
(10.4643 -0.0367268 0)
(10.416 -0.144155 0)
(10.3775 -0.280291 0)
(10.4433 -0.414765 0)
(10.6037 -0.511348 0)
(10.6352 -0.570533 0)
(10.5035 -0.678817 0)
(10.4426 -0.823843 0)
(10.4634 -0.937761 0)
(10.6903 -0.961917 0)
(10.1379 0.0350281 0)
(10.1051 0.0254534 0)
(10.0659 0.11808 0)
(10.0084 0.115793 0)
(10.0294 0.060632 0)
(10.1051 -0.0237186 0)
(10.2012 -0.0895107 0)
(10.326 -0.127255 0)
(10.4644 -0.149692 0)
(10.5558 -0.189056 0)
(10.563 -0.229889 0)
(10.5296 -0.295068 0)
(10.5555 -0.426922 0)
(10.5886 -0.587285 0)
(10.5305 -0.654324 0)
(10.4437 -0.660253 0)
(10.4148 -0.982029 0)
(10.2234 -1.33708 0)
(9.91035 0.0888749 0)
(9.89084 0.0936608 0)
(9.97089 0.0588217 0)
(10.054 0.034565 0)
(10.1017 -0.00670584 0)
(10.1006 -0.105405 0)
(10.1392 -0.195877 0)
(10.2473 -0.239526 0)
(10.3418 -0.246764 0)
(10.3626 -0.279581 0)
(10.3748 -0.333549 0)
(10.4382 -0.386913 0)
(10.5007 -0.43246 0)
(10.4567 -0.507121 0)
(10.3511 -0.656871 0)
(10.2961 -0.785838 0)
(10.2787 -0.562735 0)
(10.2128 -0.44007 0)
(9.95986 0.0245202 0)
(10.0355 -0.0460428 0)
(10.0997 -0.0208145 0)
(10.1077 0.0224358 0)
(10.0744 0.0225253 0)
(10.0126 -0.0614332 0)
(9.98066 -0.17772 0)
(10.0069 -0.281836 0)
(10.0303 -0.343997 0)
(10.0396 -0.364371 0)
(10.0488 -0.347784 0)
(10.0763 -0.344594 0)
(10.1287 -0.384062 0)
(10.1883 -0.450582 0)
(10.1766 -0.500685 0)
(10.0904 -0.594687 0)
(10.0685 -0.871356 0)
(10.2324 -0.938142 0)
(10.0816 -0.141012 0)
(10.0836 -0.0843615 0)
(10.0639 0.0162602 0)
(10.1029 0.0739706 0)
(10.1434 0.0626784 0)
(10.1023 -0.0221626 0)
(10.0602 -0.138376 0)
(10.051 -0.247457 0)
(10.0054 -0.317155 0)
(9.91219 -0.363315 0)
(9.85277 -0.408628 0)
(9.89153 -0.462063 0)
(9.98574 -0.511153 0)
(10.0346 -0.582989 0)
(10.0263 -0.677053 0)
(10.029 -0.752333 0)
(10.0332 -0.768244 0)
(9.97023 -0.869636 0)
(9.9615 -0.0582221 0)
(9.96666 -0.0367776 0)
(9.97957 -0.032352 0)
(10.1073 -0.0276583 0)
(10.2558 -0.0155889 0)
(10.3117 -0.011146 0)
(10.3152 -0.0364994 0)
(10.3238 -0.100046 0)
(10.3026 -0.177699 0)
(10.2365 -0.263119 0)
(10.1971 -0.349531 0)
(10.2235 -0.43743 0)
(10.282 -0.518039 0)
(10.2987 -0.589578 0)
(10.2518 -0.635622 0)
(10.1702 -0.670536 0)
(10.1144 -0.701742 0)
(10.0816 -0.705475 0)
(9.8044 -0.0822905 0)
(9.90664 -0.221059 0)
(9.88975 -0.202638 0)
(9.91003 -0.185415 0)
(10.0372 -0.170358 0)
(10.145 -0.149495 0)
(10.2348 -0.13154 0)
(10.3413 -0.147211 0)
(10.4022 -0.202198 0)
(10.3737 -0.291965 0)
(10.3228 -0.391892 0)
(10.3104 -0.480267 0)
(10.3284 -0.534591 0)
(10.3014 -0.561064 0)
(10.2216 -0.562065 0)
(10.1326 -0.551578 0)
(10.0779 -0.535513 0)
(10.0397 -0.534031 0)
(10.0627 -0.0974639 0)
(10.0262 -0.109584 0)
(10.0096 -0.142365 0)
(10.0168 -0.187586 0)
(10.0501 -0.237449 0)
(10.0523 -0.273331 0)
(10.065 -0.26541 0)
(10.1264 -0.243315 0)
(10.1682 -0.23438 0)
(10.1286 -0.257155 0)
(10.0669 -0.302521 0)
(10.0391 -0.361269 0)
(10.0342 -0.412725 0)
(9.9839 -0.454311 0)
(9.89472 -0.475067 0)
(9.81876 -0.478518 0)
(9.79771 -0.472424 0)
(9.81941 -0.46231 0)
(9.96341 -0.0708851 0)
(10.0174 -0.151664 0)
(10.0955 -0.208008 0)
(10.163 -0.243296 0)
(10.2205 -0.248186 0)
(10.2406 -0.237968 0)
(10.2602 -0.219006 0)
(10.3132 -0.220737 0)
(10.3459 -0.242842 0)
(10.3164 -0.274525 0)
(10.2691 -0.299976 0)
(10.2557 -0.324395 0)
(10.252 -0.346765 0)
(10.1971 -0.373672 0)
(10.0933 -0.402719 0)
(9.99686 -0.436665 0)
(9.95226 -0.470838 0)
(9.94398 -0.505028 0)
(10.2006 -0.217675 0)
(10.0987 -0.235407 0)
(10.1089 -0.234908 0)
(10.1606 -0.249344 0)
(10.2315 -0.265442 0)
(10.2758 -0.272615 0)
(10.3186 -0.265245 0)
(10.3789 -0.263066 0)
(10.4015 -0.263073 0)
(10.356 -0.260467 0)
(10.3022 -0.253221 0)
(10.3021 -0.254881 0)
(10.3292 -0.265194 0)
(10.3146 -0.288627 0)
(10.2552 -0.312278 0)
(10.189 -0.338596 0)
(10.1595 -0.359806 0)
(10.1397 -0.379584 0)
(10.0125 -0.054532 0)
(9.96611 -0.175093 0)
(10.0328 -0.322229 0)
(10.2027 -0.366467 0)
(10.3875 -0.350809 0)
(10.497 -0.321532 0)
(10.5389 -0.293148 0)
(10.559 -0.275896 0)
(10.5568 -0.263489 0)
(10.5263 -0.254613 0)
(10.5218 -0.245829 0)
(10.5742 -0.248905 0)
(10.6461 -0.267124 0)
(10.6655 -0.302029 0)
(10.6238 -0.333663 0)
(10.5562 -0.355134 0)
(10.5035 -0.360924 0)
(10.4473 -0.359066 0)
(10.0629 -0.187839 0)
(10.2573 -0.258251 0)
(10.3964 -0.393769 0)
(10.5035 -0.4473 0)
(10.5991 -0.406111 0)
(10.6424 -0.327045 0)
(10.638 -0.270905 0)
(10.63 -0.256938 0)
(10.6189 -0.275326 0)
(10.5911 -0.304333 0)
(10.5807 -0.31934 0)
(10.6003 -0.32053 0)
(10.616 -0.312963 0)
(10.572 -0.303663 0)
(10.4768 -0.280719 0)
(10.3751 -0.246346 0)
(10.3036 -0.206139 0)
(10.2488 -0.176309 0)
(9.93463 -0.219903 0)
(10.1475 -0.417834 0)
(10.375 -0.493716 0)
(10.5145 -0.48707 0)
(10.596 -0.41937 0)
(10.6496 -0.346112 0)
(10.704 -0.297932 0)
(10.7719 -0.276294 0)
(10.8106 -0.271186 0)
(10.7924 -0.261293 0)
(10.7576 -0.234982 0)
(10.7366 -0.209561 0)
(10.7196 -0.199483 0)
(10.6678 -0.204629 0)
(10.591 -0.203835 0)
(10.5179 -0.192888 0)
(10.4713 -0.176857 0)
(10.4336 -0.168684 0)
(10.0252 -0.232946 0)
(10.1667 -0.506721 0)
(10.4722 -0.580493 0)
(10.7096 -0.532256 0)
(10.7864 -0.428327 0)
(10.7616 -0.361567 0)
(10.7319 -0.339182 0)
(10.7345 -0.333483 0)
(10.7433 -0.326502 0)
(10.7404 -0.3048 0)
(10.7462 -0.270233 0)
(10.7644 -0.239301 0)
(10.7728 -0.224445 0)
(10.7429 -0.218298 0)
(10.6802 -0.195847 0)
(10.6118 -0.157759 0)
(10.553 -0.114354 0)
(10.5001 -0.0863146 0)
(9.94953 -0.361881 0)
(10.3731 -0.652331 0)
(10.7139 -0.693079 0)
(10.8789 -0.56821 0)
(10.9458 -0.425671 0)
(10.9734 -0.350748 0)
(10.9853 -0.334089 0)
(10.9576 -0.329402 0)
(10.876 -0.317141 0)
(10.7556 -0.289165 0)
(10.648 -0.250294 0)
(10.5703 -0.211409 0)
(10.5098 -0.188007 0)
(10.4368 -0.171405 0)
(10.3583 -0.145755 0)
(10.2807 -0.111226 0)
(10.2165 -0.0781747 0)
(10.1566 -0.060787 0)
(10.0369 -0.527632 0)
(10.535 -0.840191 0)
(10.7548 -0.725907 0)
(10.6865 -0.544567 0)
(10.4959 -0.425159 0)
(10.2621 -0.36576 0)
(10.0202 -0.327756 0)
(9.75644 -0.279416 0)
(9.49459 -0.228503 0)
(9.24028 -0.18699 0)
(9.04329 -0.160665 0)
(8.88533 -0.1445 0)
(8.76022 -0.136945 0)
(8.63063 -0.120975 0)
(8.5232 -0.0925442 0)
(8.42512 -0.0544424 0)
(8.36429 -0.0213434 0)
(8.30751 -0.00117106 0)
(10.1341 -0.727045 0)
(9.84732 -0.988937 0)
(9.22001 -0.771985 0)
(8.51469 -0.520493 0)
(7.85742 -0.338791 0)
(7.28368 -0.221222 0)
(6.81359 -0.150455 0)
(6.43854 -0.104093 0)
(6.1507 -0.0740789 0)
(5.91243 -0.0547035 0)
(5.73245 -0.0458065 0)
(5.57988 -0.0410245 0)
(5.45893 -0.0377439 0)
(5.35046 -0.0301715 0)
(5.28083 -0.0225985 0)
(5.22565 -0.0114197 0)
(5.21385 -0.00840472 0)
(5.18707 -0.0059031 0)
(8.31077 -0.392994 0)
(5.9945 -0.3382 0)
(4.27053 -0.125064 0)
(3.23204 -0.0142583 0)
(2.66146 0.0242385 0)
(2.34625 0.0314327 0)
(2.15683 0.0239351 0)
(2.0287 0.0180621 0)
(1.94082 0.0152114 0)
(1.87806 0.0107665 0)
(1.8296 0.00344346 0)
(1.77982 -0.00239844 0)
(1.73061 -0.00690831 0)
(1.68264 -0.00922392 0)
(1.64274 -0.00947247 0)
(1.61593 -0.00549588 0)
(1.59595 -0.0106178 0)
(1.57273 0.0033268 0)
(-0.0203419 0.0344934 0)
(-0.0438665 0.0221859 0)
(-0.059499 0.0187887 0)
(-0.0751294 0.0167047 0)
(-0.0879769 0.0142878 0)
(-0.0987952 0.0114094 0)
(-0.106335 0.0081156 -6.24432e-20)
(-0.110303 0.00428449 6.19407e-20)
(-0.110146 -2.84858e-05 0)
(-0.105463 -0.00467792 6.09259e-20)
(-0.0958431 -0.00953965 0)
(-0.0801854 -0.014673 0)
(-0.0588728 -0.0200832 0)
(-0.0315547 -0.0255379 -5.88613e-20)
(0.00241866 -0.0310167 0)
(0.0426678 -0.0364745 0)
(0.0892227 -0.0417796 5.7289e-20)
(0.142114 -0.0468598 0)
(0.201207 -0.0516469 0)
(0.266289 -0.0560789 0)
(0.337062 -0.0601022 -5.51879e-20)
(0.413154 -0.0636676 0)
(0.494147 -0.0667333 -5.41429e-20)
(0.579595 -0.0692723 0)
(0.668988 -0.07127 0)
(0.761759 -0.0727191 -5.25931e-20)
(0.857338 -0.0736213 0)
(0.955181 -0.0739865 5.15765e-20)
(1.05474 -0.0738295 0)
(1.15541 -0.0731799 -5.05764e-20)
(1.25661 -0.0720802 0)
(1.35785 -0.0705631 0)
(1.45866 -0.0686537 0)
(1.55855 -0.0663993 0)
(1.65702 -0.0638629 0)
(1.75375 -0.0610892 4.7689e-20)
(1.84842 -0.0581035 0)
(1.94068 -0.0549447 -9.35319e-20)
(2.03021 -0.0516723 0)
(2.11681 -0.0483342 9.17242e-20)
(2.20037 -0.0449517 0)
(2.2807 -0.0415467 0)
(2.35761 -0.0381593 -8.90813e-20)
(2.43105 -0.0348282 0)
(2.50102 -0.0315715 -8.73623e-20)
(2.5675 -0.0283977 8.65149e-20)
(2.63041 -0.0253242 0)
(2.68978 -0.0223739 8.48431e-20)
(2.74571 -0.0195587 8.40183e-20)
(2.79828 -0.0168806 0)
(2.84748 -0.014343 0)
(2.8934 -0.0119529 0)
(2.93618 -0.00971369 0)
(2.97594 -0.00762328 0)
(3.01275 -0.00567902 -7.92097e-20)
(3.0467 -0.00387879 0)
(3.07795 -0.00221842 7.76559e-20)
(3.10663 -0.00069204 0)
(3.13285 0.000704879 0)
(3.15669 0.00197693 -7.53672e-20)
(3.17829 0.00313181 0)
(3.19779 0.00417834 7.38679e-20)
(3.2153 0.00512228 0)
(3.2309 0.00596749 0)
(3.24471 0.00672156 0)
(3.25685 0.00739512 -7.09297e-20)
(3.26741 0.00799514 0)
(3.27649 0.00852409 0)
(3.28416 0.00898651 -6.87767e-20)
(3.29052 0.00939243 0)
(3.29567 0.00975073 -6.73647e-20)
(3.2997 0.0100573 0)
(3.30267 0.0103009 0)
(3.30463 0.0104357 0)
(3.30562 0.0105158 6.45949e-20)
(3.30574 0.0105616 0)
(3.30505 0.010582 0)
(3.30358 0.0105812 6.25641e-20)
(3.30142 0.0105616 6.18958e-20)
(3.2986 0.0105277 0)
(3.29518 0.0104821 6.05722e-20)
(3.29119 0.010422 0)
(3.28666 0.0103492 1.18531e-19)
(3.28164 0.0102676 0)
(3.27616 0.0102059 1.15952e-19)
(3.27023 0.0101455 0)
(3.26388 0.0100795 -1.13406e-19)
(3.25715 0.0100047 0)
(3.25006 0.00992462 0)
(3.24265 0.00984407 0)
(3.23493 0.00976288 1.08413e-19)
(3.22691 0.00967789 0)
(3.21861 0.00958717 -1.05965e-19)
(3.21006 0.00949305 0)
(3.20127 0.00940036 1.0355e-19)
(3.19226 0.0093097 1.02354e-19)
(3.18304 0.0092176 1.01166e-19)
(3.1736 0.00912239 0)
(3.16398 0.009026 0)
(3.1542 0.00893146 0)
(3.14425 0.0088402 0)
(3.13414 0.00875099 0)
(3.12388 0.00866116 0)
(3.11347 0.00856966 0)
(3.10293 0.00847826 0)
(3.09227 0.00838954 -9.08232e-20)
(3.0815 0.00830397 -8.97119e-20)
(3.07061 0.00821951 0)
(3.05961 0.00813404 0)
(3.0485 0.00804737 0)
(3.0373 0.00796125 -8.534e-20)
(3.02601 0.00787753 0)
(3.01464 0.0077964 0)
(3.00319 0.00771645 0)
(2.99165 0.0076363 0)
(2.98003 0.00755581 8.00366e-20)
(2.96835 0.00747577 0)
(2.9566 0.00739721 0)
(2.94478 0.00732042 -7.69381e-20)
(2.93291 0.00724495 7.59188e-20)
(2.92097 0.00717018 0)
(2.90897 0.00709565 7.39005e-20)
(2.89692 0.00702111 0)
(2.88481 0.00694663 -7.19085e-20)
(2.87265 0.00687253 0)
(2.86045 0.00679935 0)
(2.84821 0.00672763 0)
(2.83592 0.00665748 0)
(2.82358 0.00658829 0)
(2.81121 0.00651911 1.32173e-19)
(2.79878 0.00644925 1.30276e-19)
(2.78632 0.00637891 0)
(2.77382 0.006309 0)
(2.7613 0.00624048 0)
(2.74874 0.00617364 -1.22809e-19)
(2.73614 0.00610775 0)
(2.72351 0.00604162 0)
(2.71084 0.0059745 0)
(2.69814 0.00590678 -1.1553e-19)
(2.68541 0.00583948 1.13739e-19)
(2.67266 0.00577334 0)
(2.65988 0.00570827 0)
(2.64708 0.00564363 1.08431e-19)
(2.63425 0.00557878 1.06684e-19)
(2.62139 0.00551343 0)
(2.60851 0.00544775 0)
(2.5956 0.00538228 -1.01506e-19)
(2.58268 0.00531757 9.98006e-20)
(2.56974 0.00525376 0)
(2.55677 0.00519047 0)
(2.54378 0.00512718 9.47463e-20)
(2.53077 0.00506377 0)
(2.51773 0.00500058 0)
(2.50467 0.0049375 8.97812e-20)
(2.49159 0.0048746 0)
(2.47848 0.00481261 8.65193e-20)
(2.46534 0.00475176 0)
(2.45217 0.00469231 0)
(2.43896 0.00463462 0)
(2.42569 0.00457832 -8.01066e-20)
(2.41237 0.00452377 0)
(2.39897 0.00447176 0)
(2.38549 0.00442242 0)
(2.37189 0.00437793 0)
(2.35815 0.00433918 0)
(2.34422 0.00430811 0)
(2.33005 0.00428836 -6.92198e-20)
(2.31558 0.00427673 -6.76971e-20)
(2.30065 0.00430025 0)
(2.28535 0.00430246 0)
(2.26878 0.00446342 0)
(2.25259 0.00440854 6.16781e-20)
(2.23167 0.00499037 0)
(2.21607 0.00471031 -1.17412e-19)
(2.18351 0.00619727 1.14466e-19)
(2.17119 0.00573782 1.11504e-19)
(2.11752 0.00908992 -1.08579e-19)
(2.08999 0.00842418 1.0562e-19)
(2.03485 0.027839 -1.02687e-19)
(1.85137 0.00359958 0)
(-0.0230906 0.103497 0)
(-0.0463523 0.0601856 0)
(-0.0625689 0.0491996 1.28939e-19)
(-0.0780011 0.0426998 0)
(-0.0909825 0.0352279 -1.26978e-19)
(-0.10156 0.0262683 -1.25986e-19)
(-0.108846 0.0158127 -6.25379e-20)
(-0.112545 0.00372808 -6.19473e-20)
(-0.111549 -0.00969542 0)
(-0.105312 -0.024534 -6.09343e-20)
(-0.093808 -0.0403268 0)
(-0.0761627 -0.0569788 0)
(-0.0521687 -0.0744654 1.18858e-19)
(-0.0214031 -0.0923022 5.88742e-20)
(0.0164504 -0.110396 -1.16773e-19)
(0.0612524 -0.128606 -1.15717e-19)
(0.113115 -0.146327 -5.7306e-20)
(0.171982 -0.163485 0)
(0.237732 -0.179876 0)
(0.310159 -0.195305 0)
(0.388987 -0.20959 -5.52527e-20)
(0.473858 -0.222581 0)
(0.564352 -0.234161 1.62544e-19)
(0.660009 -0.244247 0)
(0.760336 -0.252774 0)
(0.864786 -0.259695 5.26254e-20)
(0.972791 -0.265014 0)
(1.0838 -0.26877 -5.16127e-20)
(1.19729 -0.271 -1.02244e-19)
(1.31266 -0.271746 5.06164e-20)
(1.42934 -0.271092 0)
(1.54684 -0.269153 0)
(1.66473 -0.266032 0)
(1.78249 -0.261826 -9.73722e-20)
(1.89965 -0.256645 -9.64275e-20)
(2.01585 -0.250614 -4.77406e-20)
(2.1308 -0.243848 0)
(2.24415 -0.236462 9.3642e-20)
(2.35555 -0.228561 0)
(2.46477 -0.220246 -9.18408e-20)
(2.57167 -0.211611 0)
(2.67605 -0.20275 0)
(2.7777 -0.19375 8.92065e-20)
(2.8765 -0.184682 0)
(2.9724 -0.175607 2.62495e-19)
(3.06534 -0.166583 -8.66471e-20)
(3.15522 -0.157669 0)
(3.24199 -0.148912 -8.49791e-20)
(3.32568 -0.140345 -8.41558e-20)
(3.40631 -0.131996 0)
(3.48384 -0.123893 0)
(3.5583 -0.116063 0)
(3.62975 -0.10852 0)
(3.69825 -0.101274 0)
(3.76383 -0.0943313 7.93531e-20)
(3.82653 -0.0876981 1.57162e-19)
(3.88644 -0.0813777 -7.78e-20)
(3.94365 -0.0753692 0)
(3.99822 -0.0696679 1.52551e-19)
(4.0502 -0.0642676 -7.55237e-20)
(4.09968 -0.0591611 0)
(4.14676 -0.0543423 -7.40115e-20)
(4.19152 -0.0498047 0)
(4.23402 -0.0455379 0)
(4.27434 -0.0415277 -1.43608e-19)
(4.31259 -0.0377611 7.10712e-20)
(4.34884 -0.03423 -1.40705e-19)
(4.38315 -0.0309271 1.39268e-19)
(4.41561 -0.0278401 6.89158e-20)
(4.44629 -0.0249533 0)
(4.47529 -0.0222558 6.75019e-20)
(4.50265 -0.0197471 0)
(4.52843 -0.0174237 0)
(4.5527 -0.0152988 0)
(4.57557 -0.0133303 6.47338e-20)
(4.5971 -0.0115002 0)
(4.61733 -0.00980194 1.26739e-19)
(4.63632 -0.00822746 -1.88085e-19)
(4.65413 -0.00676513 -6.20236e-20)
(4.67081 -0.00540468 0)
(4.68643 -0.00414035 -6.06973e-20)
(4.70102 -0.00297 0)
(4.71464 -0.00189112 -1.18776e-19)
(4.72736 -0.000890863 0)
(4.73923 1.45381e-05 -1.16191e-19)
(4.75023 0.000846515 2.2983e-19)
(4.76043 0.00161139 1.1364e-19)
(4.76985 0.00231402 0)
(4.77857 0.00296066 0)
(4.78661 0.00356083 0)
(4.79401 0.00411568 -1.08637e-19)
(4.8008 0.00462477 0)
(4.807 0.00509253 1.06184e-19)
(4.81265 0.00552273 0)
(4.81778 0.0059191 -3.11294e-19)
(4.82243 0.00628456 -1.02565e-19)
(4.8266 0.00661791 -1.01375e-19)
(4.83031 0.00691911 0)
(4.83361 0.00719253 0)
(4.83651 0.00744308 0)
(4.83904 0.00767335 0)
(4.84121 0.00788417 0)
(4.84303 0.00807518 -1.88796e-19)
(4.84452 0.00824631 -1.86524e-19)
(4.8457 0.00839943 0)
(4.8466 0.00853752 9.1011e-20)
(4.84723 0.00866276 8.98975e-20)
(4.84759 0.00877534 0)
(4.8477 0.0088745 1.75387e-19)
(4.84756 0.00896022 0)
(4.8472 0.0090341 -8.55185e-20)
(4.84663 0.00909859 0)
(4.84586 0.0091553 0)
(4.84489 0.0092042 1.64616e-19)
(4.84373 0.00924444 0)
(4.8424 0.00927588 -8.02033e-20)
(4.84089 0.00929935 0)
(4.83922 0.00931656 0)
(4.83739 0.00932891 -7.70999e-20)
(4.83542 0.00933675 -7.60777e-20)
(4.8333 0.00933988 0)
(4.83104 0.00933789 7.40563e-20)
(4.82865 0.00933057 0)
(4.82612 0.00931815 -7.20605e-20)
(4.82348 0.00930124 -1.42144e-19)
(4.82071 0.00928068 0)
(4.81784 0.00925766 0)
(4.81485 0.00923318 0)
(4.81175 0.0092074 0)
(4.80854 0.00917958 -1.32454e-19)
(4.80522 0.00914857 -3.91661e-19)
(4.8018 0.00911379 0)
(4.79828 0.00907604 0)
(4.79467 0.00903705 0)
(4.79096 0.0089983 1.23072e-19)
(4.78716 0.00895994 0)
(4.78326 0.00892069 0)
(4.77926 0.00887891 -2.35172e-19)
(4.77517 0.00883414 -1.1578e-19)
(4.77099 0.00878754 -1.13985e-19)
(4.76672 0.00874074 0)
(4.76236 0.00869459 0)
(4.75791 0.00864875 -1.08668e-19)
(4.75337 0.00860216 1.06918e-19)
(4.74873 0.00855403 0)
(4.744 0.00850427 0)
(4.73918 0.00845367 1.0173e-19)
(4.73427 0.00840359 -3.00064e-19)
(4.72927 0.00835483 0)
(4.72418 0.00830736 0)
(4.71898 0.00826048 -9.49575e-20)
(4.71368 0.00821365 0)
(4.70829 0.00816725 -1.83263e-19)
(4.70278 0.00812183 8.99833e-20)
(4.69717 0.00807786 0)
(4.69144 0.00803661 -8.6715e-20)
(4.6856 0.00799968 -1.7019e-19)
(4.67963 0.00796814 0)
(4.67351 0.00794412 0)
(4.66725 0.00792875 8.029e-20)
(4.66082 0.00792308 0)
(4.65419 0.0079311 -1.54262e-19)
(4.64735 0.00795537 0)
(4.64026 0.00800259 0)
(4.63289 0.00807833 0)
(4.62515 0.00819534 0)
(4.61699 0.00836059 6.93818e-20)
(4.60834 0.00859183 6.7856e-20)
(4.59887 0.00893586 0)
(4.58909 0.00928723 0)
(4.57673 0.0102257 0)
(4.56678 0.0101315 -6.18244e-20)
(4.5463 0.0138163 0)
(4.54059 0.00980958 1.17691e-19)
(4.5008 0.024131 -1.14738e-19)
(4.50187 0.00611013 -1.11769e-19)
(4.4409 0.0482568 -1.08844e-19)
(4.40951 0.00441572 -1.05869e-19)
(4.37532 0.0994251 -1.02976e-19)
(4.18856 0.0459009 0)
(-0.0266728 0.183414 0)
(-0.0556939 0.106584 0)
(-0.0764419 0.087554 -1.28936e-19)
(-0.0965435 0.0766296 -1.2812e-19)
(-0.114133 0.0640467 1.26978e-19)
(-0.129122 0.0487298 1.25986e-19)
(-0.140749 0.0307127 -1.49792e-22)
(-0.148266 0.00997719 0)
(-0.151006 -0.013022 0)
(-0.148231 -0.0384192 0)
(-0.13918 -0.065727 0)
(-0.123608 -0.0945831 0)
(-0.101126 -0.124702 -3.56822e-19)
(-0.0712434 -0.155543 0)
(-0.0339655 -0.186859 1.16775e-19)
(0.0113234 -0.218057 1.1572e-19)
(0.0645347 -0.248979 0)
(0.124954 -0.27861 0)
(0.192699 -0.3069 0)
(0.267529 -0.333507 0)
(0.349098 -0.358129 1.10469e-19)
(0.436953 -0.380504 0)
(0.530589 -0.400434 -1.08381e-19)
(0.629501 -0.417789 0)
(0.733149 -0.43248 0)
(0.840894 -0.444455 0)
(0.952068 -0.453724 -2.08617e-19)
(1.06611 -0.460344 0)
(1.1825 -0.464392 1.02256e-19)
(1.3006 -0.465984 -2.02589e-19)
(1.41977 -0.465284 0)
(1.53951 -0.462455 0)
(1.6594 -0.457657 0)
(1.77899 -0.451076 9.73889e-20)
(1.89777 -0.442927 9.64452e-20)
(2.0154 -0.433411 0)
(2.13158 -0.4227 0)
(2.24601 -0.410969 -1.87385e-19)
(2.35839 -0.398406 -1.85575e-19)
(2.46852 -0.385186 1.83784e-19)
(2.57625 -0.371457 0)
(2.6814 -0.357352 0)
(2.7838 -0.343001 0)
(2.8834 -0.328527 0)
(2.98014 -0.314034 -1.7506e-19)
(3.07396 -0.299612 -1.73402e-19)
(3.16477 -0.285334 1.71727e-19)
(3.25257 -0.271268 0)
(3.33742 -0.257479 0)
(3.41931 -0.244019 0)
(3.49822 -0.230925 0)
(3.57417 -0.218222 -1.63564e-19)
(3.64725 -0.205933 0)
(3.71752 -0.194087 0)
(3.785 -0.182699 -1.58818e-19)
(3.84973 -0.171771 -1.57237e-19)
(3.91179 -0.161301 0)
(3.97127 -0.151292 3.08351e-19)
(4.02824 -0.141749 -1.5263e-19)
(4.08273 -0.132664 1.51115e-19)
(4.13482 -0.124021 0)
(4.18461 -0.115809 0)
(4.23217 -0.108025 0)
(4.27756 -0.100658 0)
(4.32085 -0.0936874 1.43692e-19)
(4.36212 -0.0870961 2.84501e-19)
(4.40145 -0.0808737 1.4079e-19)
(4.43891 -0.0750103 -1.39353e-19)
(4.47455 -0.069488 0)
(4.50847 -0.0642873 2.73036e-19)
(4.54072 -0.0593961 2.70216e-19)
(4.57136 -0.054804 2.67413e-19)
(4.60046 -0.0504944 -2.64629e-19)
(4.6281 -0.0464219 0)
(4.65434 -0.0425871 -3.8866e-19)
(4.67924 -0.0389834 0)
(4.70284 -0.0356051 1.26841e-19)
(4.7252 -0.0324404 1.25477e-19)
(4.74639 -0.0294719 0)
(4.76645 -0.0266852 0)
(4.78544 -0.0240732 2.42982e-19)
(4.80339 -0.0216298 0)
(4.82037 -0.0193482 2.37742e-19)
(4.83641 -0.0172151 0)
(4.85155 -0.0152537 -2.32569e-19)
(4.86587 -0.0134354 -4.60006e-19)
(4.87939 -0.011746 0)
(4.89213 -0.0101722 0)
(4.90415 -0.00869985 0)
(4.91549 -0.00732494 -2.19928e-19)
(4.92618 -0.00604363 0)
(4.93625 -0.00485588 -2.14986e-19)
(4.94572 -0.00375173 0)
(4.95463 -0.00271831 0)
(4.96302 -0.00175343 4.15385e-19)
(4.97091 -0.000856212 0)
(4.97833 -2.60651e-05 2.02914e-19)
(4.98529 0.000740592 0)
(4.99183 0.00145162 1.98197e-19)
(4.99798 0.00211381 0)
(5.00375 0.00272966 0)
(5.00916 0.00329985 0)
(5.01423 0.00382572 5.66842e-19)
(5.01898 0.00431018 1.86671e-19)
(5.02343 0.00475734 0)
(5.02761 0.00517052 0)
(5.03152 0.00555141 0)
(5.03518 0.00590081 0)
(5.0386 0.00622001 -1.75528e-19)
(5.04179 0.00651152 3.46692e-19)
(5.04478 0.00677848 1.71174e-19)
(5.04758 0.00702329 -3.38042e-19)
(5.05019 0.00724686 -3.3376e-19)
(5.05263 0.00744934 -1.64751e-19)
(5.05491 0.0076313 0)
(5.05703 0.00779448 -3.21083e-19)
(5.059 0.00794113 0)
(5.06085 0.0080736 3.12772e-19)
(5.06257 0.00819316 1.54327e-19)
(5.06417 0.00829997 0)
(5.06566 0.00839398 -3.00509e-19)
(5.06704 0.0084753 -1.48237e-19)
(5.06833 0.0085446 0)
(5.06953 0.00860328 -1.44244e-19)
(5.07064 0.00865292 4.26797e-19)
(5.07167 0.0086947 0)
(5.07263 0.0087295 0)
(5.07352 0.00875785 0)
(5.07434 0.00877971 0)
(5.0751 0.00879481 2.65139e-19)
(5.0758 0.00880311 2.61335e-19)
(5.07645 0.0088052 0)
(5.07704 0.00880252 0)
(5.0776 0.00879661 0)
(5.0781 0.00878828 0)
(5.07857 0.00877718 0)
(5.07899 0.00876207 0)
(5.07937 0.00874215 2.35382e-19)
(5.07971 0.00871803 -7.8852e-25)
(5.08002 0.00869149 0)
(5.0803 0.00866401 0)
(5.08055 0.00863582 2.2106e-19)
(5.08076 0.00860612 0)
(5.08095 0.00857389 -2.14031e-19)
(5.0811 0.00853856 -2.10549e-19)
(5.08122 0.00850082 0)
(5.08132 0.0084624 0)
(5.08139 0.00842505 2.00229e-19)
(5.08144 0.00838926 3.93662e-19)
(5.08146 0.0083544 0)
(5.08144 0.00831985 0)
(5.0814 0.00828549 0)
(5.08132 0.00825184 1.83438e-19)
(5.0812 0.00822003 -1.80138e-19)
(5.08105 0.00819203 0)
(5.08086 0.00816931 -3.47195e-19)
(5.08062 0.00815375 -1.70356e-19)
(5.08034 0.00814758 3.34263e-19)
(5.07999 0.00815326 0)
(5.07956 0.00817375 0)
(5.07905 0.00821188 3.15136e-19)
(5.07842 0.0082736 1.54415e-19)
(5.07767 0.00836577 0)
(5.07675 0.00849734 0)
(5.07565 0.00868051 0)
(5.07426 0.00893008 0)
(5.07261 0.00927063 2.77811e-19)
(5.07041 0.00971627 0)
(5.06795 0.0103331 0)
(5.06425 0.011107 0)
(5.06064 0.0123185 0)
(5.05419 0.0134015 0)
(5.04839 0.0167304 0)
(5.03825 0.016036 2.35648e-19)
(5.02529 0.028922 0)
(5.01381 0.0164689 0)
(4.98234 0.0603734 4.35839e-19)
(4.96566 0.0237672 -2.1208e-19)
(4.92221 0.121604 2.06116e-19)
(4.85526 0.0996449 -2.00481e-19)
(-0.031234 0.279493 0)
(-0.0690659 0.16652 2.60561e-19)
(-0.0968883 0.137831 0)
(-0.12426 0.122201 1.28119e-19)
(-0.149175 0.104017 0)
(-0.171074 0.0817368 0)
(-0.189173 0.0553117 -1.25565e-19)
(-0.2026 0.0249972 0)
(-0.210542 -0.00895681 0)
(-0.212412 -0.0464048 0)
(-0.207211 -0.0866045 0)
(-0.194517 -0.129383 0)
(-0.173796 -0.173871 4.7627e-19)
(-0.144739 -0.219331 2.36197e-19)
(-0.106985 -0.265588 -2.34077e-19)
(-0.0608463 -0.311235 0)
(-0.00548712 -0.356415 0)
(0.0588012 -0.400071 0)
(0.130593 -0.441493 0)
(0.210132 -0.480294 0)
(0.296964 -0.516047 2.21285e-19)
(0.39052 -0.548399 2.19164e-19)
(0.490136 -0.577087 -2.17052e-19)
(0.595153 -0.60195 2.14951e-19)
(0.704921 -0.622876 0)
(0.818713 -0.639815 0)
(0.935794 -0.652813 2.08618e-19)
(1.05552 -0.661984 0)
(1.17724 -0.667475 0)
(1.30024 -0.669475 2.0259e-19)
(1.42391 -0.668214 2.007e-19)
(1.54779 -0.663939 1.98743e-19)
(1.67141 -0.656924 0)
(1.7942 -0.647465 0)
(1.91568 -0.635844 -1.92998e-19)
(2.03562 -0.62232 0)
(2.15376 -0.60716 0)
(2.26976 -0.590647 1.87388e-19)
(2.38331 -0.573036 -1.85681e-19)
(2.49425 -0.554539 1.83886e-19)
(2.60253 -0.535347 0)
(2.708 -0.515668 0)
(2.81048 -0.495698 3.57133e-19)
(2.90991 -0.475585 0)
(3.0063 -0.455446 3.50277e-19)
(3.09965 -0.4354 5.20304e-19)
(3.18988 -0.415568 -5.1528e-19)
(3.277 -0.396046 3.40225e-19)
(3.36104 -0.376902 0)
(3.44206 -0.35819 0)
(3.52008 -0.339963 3.30427e-19)
(3.59512 -0.32227 1.63573e-19)
(3.66727 -0.305145 0)
(3.73657 -0.288609 0)
(3.80309 -0.272676 1.58828e-19)
(3.86689 -0.257352 3.14598e-19)
(3.92804 -0.242648 0)
(3.98663 -0.228568 -3.08373e-19)
(4.04271 -0.215108 3.05373e-19)
(4.09636 -0.202254 -3.02341e-19)
(4.14766 -0.189991 0)
(4.19669 -0.178315 0)
(4.24352 -0.167215 0)
(4.28822 -0.156675 0)
(4.33087 -0.14667 0)
(4.37154 -0.137181 -2.84528e-19)
(4.41031 -0.128195 0)
(4.44723 -0.119695 0)
(4.48239 -0.111658 0)
(4.51585 -0.104064 -5.46162e-19)
(4.54769 -0.0968939 -2.70246e-19)
(4.57795 -0.0901314 -2.67444e-19)
(4.60672 -0.0837526 5.29345e-19)
(4.63404 -0.0777337 -2.61917e-19)
(4.66 -0.0720624 2.59144e-19)
(4.68463 -0.0667281 0)
(4.708 -0.0617167 -2.53699e-19)
(4.73015 -0.0570078 0)
(4.75116 -0.0525805 0)
(4.77106 -0.0484201 0)
(4.78991 -0.044517 -4.86047e-19)
(4.80774 -0.0408593 2.40402e-19)
(4.82461 -0.0374312 2.37804e-19)
(4.84057 -0.0342245 4.7039e-19)
(4.85566 -0.0312057 6.97837e-19)
(4.86994 -0.0283793 2.30043e-19)
(4.88341 -0.0257347 0)
(4.89614 -0.023256 4.49962e-19)
(4.90816 -0.0209326 0)
(4.91951 -0.0187582 6.59912e-19)
(4.93022 -0.0167302 0)