/*--------------------------------*- C++ -*----------------------------------*\
| =========                 |                                                 |
| \\      /  F ield         | OpenFOAM: The Open Source CFD Toolbox           |
|  \\    /   O peration     | Version:  2.1.x                                 |
|   \\  /    A nd           | Web:      www.OpenFOAM.org                      |
|    \\/     M anipulation  |                                                 |
\*---------------------------------------------------------------------------*/
FoamFile
{
    version     2.0;
    format      ascii;
    class       volVectorField;
    location    "0.003";
    object      UMean;
}
// * * * * * * * * * * * * * * * * * * * * * * * * * * * * * * * * * * * * * //

dimensions      [0 1 -1 0 0 0 0];

internalField   nonuniform List<vector> 
12225
(
(7.11182 0.371384 0)
(4.87989 0.177392 0)
(3.69886 0.0248139 0)
(3.18896 -0.014237 0)
(3.01261 -0.0162604 0)
(3.03639 -0.0128409 0)
(3.03198 -0.00704705 0)
(3.16557 -0.00834396 0)
(3.1687 -0.0082946 0)
(3.37424 -0.0116137 0)
(3.39319 -0.0152236 0)
(3.64107 -0.010344 0)
(3.75706 -0.0298056 0)
(3.99144 -0.0118915 0)
(4.51006 -0.0781996 0)
(4.44861 0.0348991 0)
(6.01217 -0.391027 0)
(5.75645 0.144783 0)
(9.61709 0.875265 0)
(9.20383 0.721155 0)
(8.30971 0.352352 0)
(7.59075 0.154022 0)
(7.08934 0.0475164 0)
(7.02065 -0.00178562 0)
(6.81703 -0.0290761 0)
(7.08734 -0.034301 0)
(6.93221 -0.048565 0)
(7.3891 -0.0693443 0)
(7.25872 -0.056141 0)
(7.7891 -0.125653 0)
(7.81801 -0.0706938 0)
(8.35495 -0.258611 0)
(8.75774 -0.134738 0)
(9.28761 -0.452992 0)
(10.196 -0.553013 0)
(11.0386 -1.03651 0)
(9.8615 0.70978 0)
(10.6243 0.761955 0)
(10.5074 0.449636 0)
(10.1877 0.265313 0)
(9.74903 0.134049 0)
(9.65923 0.0573492 0)
(9.403 -0.0113043 0)
(9.55467 -0.0474508 0)
(9.44364 -0.087753 0)
(9.73921 -0.131423 0)
(9.73168 -0.137577 0)
(10.0854 -0.209179 0)
(10.2163 -0.235906 0)
(10.6368 -0.363596 0)
(10.9632 -0.427847 0)
(11.5165 -0.634408 0)
(12.0034 -0.905976 0)
(12.6893 -1.61452 0)
(9.70853 0.54004 0)
(10.6465 0.688404 0)
(10.9821 0.441241 0)
(10.964 0.296567 0)
(10.837 0.173608 0)
(10.777 0.0915037 0)
(10.7316 0.0245037 0)
(10.705 -0.0437677 0)
(10.7763 -0.0983665 0)
(10.8185 -0.165135 0)
(10.9748 -0.181264 0)
(11.0718 -0.258378 0)
(11.2966 -0.32559 0)
(11.4506 -0.445418 0)
(11.7839 -0.598644 0)
(12.0406 -0.780327 0)
(12.4209 -1.15682 0)
(12.6806 -1.67405 0)
(9.71144 0.419244 0)
(10.4912 0.562351 0)
(10.8419 0.416163 0)
(10.942 0.250925 0)
(10.9376 0.162902 0)
(10.9594 0.0446494 0)
(10.9567 0.0389191 0)
(11.018 -0.0813297 0)
(11.0695 -0.105678 0)
(11.1418 -0.227911 0)
(11.2231 -0.209911 0)
(11.3477 -0.333479 0)
(11.4837 -0.382146 0)
(11.6578 -0.574733 0)
(11.8604 -0.713552 0)
(12.064 -0.975623 0)
(12.29 -1.29562 0)
(12.4391 -1.8017 0)
(9.78629 0.30557 0)
(10.3972 0.488612 0)
(10.732 0.370256 0)
(10.8398 0.24642 0)
(10.8881 0.140537 0)
(10.8801 0.0691224 0)
(10.931 0.0106063 0)
(10.9931 -0.0671917 0)
(11.0702 -0.151424 0)
(11.1208 -0.217375 0)
(11.2233 -0.281756 0)
(11.3401 -0.373147 0)
(11.4803 -0.49861 0)
(11.6145 -0.654155 0)
(11.7683 -0.837919 0)
(11.9243 -1.07953 0)
(12.0816 -1.40497 0)
(12.1851 -1.85824 0)
(9.70517 0.212765 0)
(10.1948 0.35234 0)
(10.4788 0.318848 0)
(10.5823 0.174972 0)
(10.6495 0.0961932 0)
(10.6604 -0.00569794 0)
(10.7245 -0.0306049 0)
(10.7928 -0.122577 0)
(10.88 -0.187225 0)
(10.9447 -0.286439 0)
(11.0557 -0.342181 0)
(11.1621 -0.448921 0)
(11.2871 -0.55836 0)
(11.3992 -0.729355 0)
(11.5361 -0.927883 0)
(11.655 -1.18303 0)
(11.7715 -1.49169 0)
(11.826 -1.87895 0)
(9.79673 0.200099 0)
(10.2246 0.325361 0)
(10.4562 0.29581 0)
(10.5616 0.190182 0)
(10.6258 0.0950102 0)
(10.6353 0.0137161 0)
(10.681 -0.0482387 0)
(10.7417 -0.128272 0)
(10.821 -0.211472 0)
(10.8789 -0.297288 0)
(10.9765 -0.384042 0)
(11.0779 -0.496473 0)
(11.1932 -0.632077 0)
(11.2897 -0.801868 0)
(11.4025 -0.998905 0)
(11.4958 -1.2448 0)
(11.5746 -1.5362 0)
(11.5862 -1.87012 0)
(9.72086 0.124989 0)
(10.1355 0.233611 0)
(10.3523 0.23368 0)
(10.4571 0.143205 0)
(10.5395 0.0564995 0)
(10.5744 -0.0281293 0)
(10.6375 -0.0835568 0)
(10.6972 -0.161999 0)
(10.7747 -0.248517 0)
(10.8384 -0.346167 0)
(10.9365 -0.43947 0)
(11.0237 -0.554354 0)
(11.1163 -0.685748 0)
(11.1883 -0.854658 0)
(11.279 -1.05912 0)
(11.3476 -1.3017 0)
(11.3893 -1.5584 0)
(11.368 -1.84792 0)
(9.76113 0.105409 0)
(10.1145 0.186806 0)
(10.29 0.188654 0)
(10.3879 0.119065 0)
(10.4693 0.0380834 0)
(10.5072 -0.0433839 0)
(10.5656 -0.107832 0)
(10.6271 -0.189174 0)
(10.7055 -0.272776 0)
(10.7677 -0.367582 0)
(10.8497 -0.468685 0)
(10.9238 -0.596486 0)
(11.0005 -0.739387 0)
(11.0559 -0.90829 0)
(11.1179 -1.09472 0)
(11.1501 -1.31571 0)
(11.1632 -1.55772 0)
(11.1402 -1.83592 0)
(9.78163 0.0863267 0)
(10.1047 0.132335 0)
(10.2416 0.135079 0)
(10.3105 0.0811862 0)
(10.3795 0.00536736 0)
(10.4292 -0.0774608 0)
(10.4904 -0.1464 0)
(10.5495 -0.228733 0)
(10.6168 -0.317687 0)
(10.6747 -0.420008 0)
(10.7483 -0.525651 0)
(10.8133 -0.648863 0)
(10.8681 -0.784231 0)
(10.9007 -0.946691 0)
(10.9393 -1.13167 0)
(10.966 -1.34203 0)
(10.9725 -1.55916 0)
(10.9332 -1.79291 0)
(9.68161 0.0536389 0)
(10.0069 0.0889038 0)
(10.1284 0.0859 0)
(10.1883 0.0364243 0)
(10.2531 -0.0321484 0)
(10.3054 -0.113716 0)
(10.3638 -0.184901 0)
(10.4182 -0.265598 0)
(10.4769 -0.351053 0)
(10.5274 -0.451188 0)
(10.5866 -0.558371 0)
(10.639 -0.690281 0)
(10.6869 -0.83321 0)
(10.7145 -0.98984 0)
(10.7336 -1.1548 0)
(10.7355 -1.34356 0)
(10.7227 -1.53981 0)
(10.6771 -1.74239 0)
(9.76791 0.0387614 0)
(10.0575 0.0451296 0)
(10.1571 0.0355174 0)
(10.1955 -0.00763249 0)
(10.24 -0.0685624 0)
(10.2822 -0.146526 0)
(10.332 -0.220591 0)
(10.3753 -0.305893 0)
(10.4233 -0.395215 0)
(10.4664 -0.500091 0)
(10.5155 -0.608168 0)
(10.5539 -0.732541 0)
(10.5808 -0.861384 0)
(10.583 -1.00778 0)
(10.5823 -1.16192 0)
(10.5723 -1.32966 0)
(10.5495 -1.49791 0)
(10.4995 -1.67257 0)
(9.72185 0.0231311 0)
(10.008 0.0181889 0)
(10.0923 -0.0039785 0)
(10.1223 -0.0530727 0)
(10.1646 -0.111692 0)
(10.2088 -0.18563 0)
(10.261 -0.258662 0)
(10.3033 -0.341783 0)
(10.3429 -0.427805 0)
(10.3698 -0.529357 0)
(10.3964 -0.635098 0)
(10.4121 -0.756626 0)
(10.4206 -0.882502 0)
(10.408 -1.0192 0)
(10.39 -1.15568 0)
(10.3622 -1.30539 0)
(10.3274 -1.45739 0)
(10.2685 -1.60044 0)
(9.78703 0.00862216 0)
(10.067 -0.0212545 0)
(10.1423 -0.055615 0)
(10.1577 -0.105126 0)
(10.1794 -0.162215 0)
(10.2089 -0.23188 0)
(10.2511 -0.300162 0)
(10.2844 -0.377904 0)
(10.312 -0.458764 0)
(10.3296 -0.553185 0)
(10.3475 -0.649857 0)
(10.3512 -0.758847 0)
(10.3424 -0.87091 0)
(10.3154 -0.994132 0)
(10.2865 -1.11634 0)
(10.2491 -1.24258 0)
(10.2056 -1.36433 0)
(10.1429 -1.50465 0)
(9.73492 -0.00528867 0)
(10.0008 -0.0424526 0)
(10.0611 -0.0822629 0)
(10.0608 -0.134594 0)
(10.0695 -0.193256 0)
(10.09 -0.262472 0)
(10.124 -0.33035 0)
(10.1513 -0.404271 0)
(10.1734 -0.47793 0)
(10.1864 -0.561217 0)
(10.1957 -0.648158 0)
(10.1919 -0.747024 0)
(10.176 -0.848001 0)
(10.1428 -0.956085 0)
(10.1015 -1.06214 0)
(10.0539 -1.17365 0)
(10.003 -1.27927 0)
(9.93607 -1.37697 0)
(9.65979 -0.0255518 0)
(9.91515 -0.0694311 0)
(9.96617 -0.120267 0)
(9.9601 -0.180401 0)
(9.95507 -0.241868 0)
(9.96022 -0.30958 0)
(9.97995 -0.37527 0)
(9.99485 -0.444338 0)
(10.0047 -0.511819 0)
(10.0081 -0.586136 0)
(10.0112 -0.661435 0)
(10.0025 -0.742947 0)
(9.97947 -0.82388 0)
(9.93916 -0.909799 0)
(9.89419 -0.991909 0)
(9.84322 -1.0752 0)
(9.78673 -1.15384 0)
(9.71744 -1.23577 0)
(9.76559 0.0061167 0)
(10.0285 -0.0636138 0)
(10.0849 -0.124578 0)
(10.0814 -0.185023 0)
(10.0709 -0.241367 0)
(10.0629 -0.301666 0)
(10.0636 -0.362357 0)
(10.0599 -0.427033 0)
(10.0501 -0.489571 0)
(10.0328 -0.555416 0)
(10.0135 -0.619348 0)
(9.98276 -0.686191 0)
(9.9401 -0.750178 0)
(9.88362 -0.816163 0)
(9.82458 -0.878649 0)
(9.76256 -0.943409 0)
(9.7 -1.00426 0)
(9.62748 -1.06607 0)
(9.74052 -0.0523795 0)
(10.0211 -0.118673 0)
(10.0828 -0.172484 0)
(10.0864 -0.224974 0)
(10.0831 -0.272387 0)
(10.0782 -0.320265 0)
(10.0766 -0.366859 0)
(10.0666 -0.417515 0)
(10.0453 -0.467521 0)
(10.014 -0.519999 0)
(9.98009 -0.569437 0)
(9.93733 -0.619784 0)
(9.88476 -0.667118 0)
(9.82087 -0.716849 0)
(9.75663 -0.764643 0)
(9.6917 -0.81521 0)
(9.62717 -0.863418 0)
(9.55427 -0.913621 0)
(9.66349 -0.051419 0)
(9.94737 -0.118613 0)
(10.0092 -0.180872 0)
(10.0113 -0.234985 0)
(10.0099 -0.277078 0)
(10.0116 -0.311701 0)
(10.0158 -0.341263 0)
(10.01 -0.375247 0)
(9.99146 -0.41133 0)
(9.96379 -0.451922 0)
(9.93429 -0.491297 0)
(9.89667 -0.532414 0)
(9.84918 -0.571057 0)
(9.79112 -0.611505 0)
(9.73338 -0.649475 0)
(9.67556 -0.689424 0)
(9.61781 -0.727036 0)
(9.55126 -0.766308 0)
(9.79936 -0.0885324 0)
(10.0627 -0.17012 0)
(10.121 -0.236578 0)
(10.125 -0.284202 0)
(10.1241 -0.313646 0)
(10.1221 -0.335328 0)
(10.1164 -0.354551 0)
(10.0984 -0.37868 0)
(10.0676 -0.404151 0)
(10.0293 -0.432649 0)
(9.98821 -0.460288 0)
(9.93945 -0.490405 0)
(9.87988 -0.519503 0)
(9.8114 -0.550789 0)
(9.74303 -0.58016 0)
(9.67674 -0.610756 0)
(9.61052 -0.638488 0)
(9.53748 -0.666888 0)
(9.72614 -0.0658755 0)
(10.0089 -0.169853 0)
(10.087 -0.243752 0)
(10.1107 -0.285034 0)
(10.1232 -0.301724 0)
(10.1264 -0.309004 0)
(10.1187 -0.315354 0)
(10.0959 -0.327389 0)
(10.0602 -0.341881 0)
(10.0179 -0.360041 0)
(9.97331 -0.379031 0)
(9.92124 -0.401287 0)
(9.85774 -0.423466 0)
(9.78498 -0.447551 0)
(9.71134 -0.469785 0)
(9.63901 -0.493164 0)
(9.56629 -0.514271 0)
(9.48686 -0.536682 0)
(9.83327 -0.0988586 0)
(10.1365 -0.246103 0)
(10.2441 -0.32012 0)
(10.2905 -0.341016 0)
(10.3094 -0.335755 0)
(10.3059 -0.325102 0)
(10.2851 -0.318525 0)
(10.25 -0.319704 0)
(10.2049 -0.324504 0)
(10.1545 -0.333076 0)
(10.1007 -0.342923 0)
(10.0378 -0.356368 0)
(9.96311 -0.370211 0)
(9.87904 -0.385436 0)
(9.79417 -0.398492 0)
(9.71056 -0.412367 0)
(9.6272 -0.424867 0)
(9.53829 -0.439383 0)
(9.77657 -0.0960494 0)
(10.1258 -0.280094 0)
(10.2604 -0.349658 0)
(10.3172 -0.348682 0)
(10.3356 -0.319557 0)
(10.325 -0.292223 0)
(10.2946 -0.275516 0)
(10.2518 -0.268361 0)
(10.2011 -0.264914 0)
(10.1459 -0.263935 0)
(10.0869 -0.264028 0)
(10.0192 -0.267856 0)
(9.94165 -0.27311 0)
(9.85749 -0.280391 0)
(9.7746 -0.286949 0)
(9.69415 -0.295735 0)
(9.6142 -0.305195 0)
(9.52927 -0.317757 0)
(9.7408 -0.180119 0)
(10.1568 -0.372471 0)
(10.3459 -0.423267 0)
(10.4319 -0.392913 0)
(10.4595 -0.33862 0)
(10.4475 -0.295016 0)
(10.4119 -0.265917 0)
(10.3624 -0.24741 0)
(10.3037 -0.234277 0)
(10.2399 -0.225644 0)
(10.1725 -0.221258 0)
(10.0982 -0.222355 0)
(10.0167 -0.225492 0)
(9.93052 -0.229431 0)
(9.84536 -0.231902 0)
(9.76119 -0.235697 0)
(9.67627 -0.240132 0)
(9.58585 -0.24693 0)
(9.68144 -0.239919 0)
(10.1577 -0.458735 0)
(10.4145 -0.483767 0)
(10.5306 -0.416303 0)
(10.5588 -0.339784 0)
(10.5377 -0.282088 0)
(10.4948 -0.239957 0)
(10.4411 -0.208227 0)
(10.3799 -0.184209 0)
(10.3134 -0.167054 0)
(10.2415 -0.156681 0)
(10.1625 -0.151999 0)
(10.0765 -0.149707 0)
(9.9867 -0.147399 0)
(9.89692 -0.144415 0)
(9.80769 -0.143218 0)
(9.7171 -0.143926 0)
(9.62235 -0.147013 0)
(9.72734 -0.318311 0)
(10.3148 -0.574724 0)
(10.6306 -0.555094 0)
(10.7448 -0.444191 0)
(10.738 -0.350694 0)
(10.6706 -0.28152 0)
(10.5794 -0.22803 0)
(10.4793 -0.184815 0)
(10.3787 -0.152694 0)
(10.2804 -0.129414 0)
(10.1854 -0.115413 0)
(10.0902 -0.106554 0)
(9.9947 -0.10098 0)
(9.89927 -0.0945953 0)
(9.80657 -0.0890849 0)
(9.71535 -0.0844218 0)
(9.62443 -0.0821019 0)
(9.53055 -0.0798304 0)
(9.80602 -0.415557 0)
(10.4917 -0.707063 0)
(10.7083 -0.606249 0)
(10.6328 -0.438883 0)
(10.4325 -0.312588 0)
(10.2101 -0.222056 0)
(10.0073 -0.157953 0)
(9.83121 -0.110705 0)
(9.68496 -0.0799892 0)
(9.55913 -0.0583976 0)
(9.456 -0.0469991 0)
(9.35867 -0.0378105 0)
(9.27577 -0.0323117 0)
(9.19251 -0.0242742 0)
(9.12404 -0.01942 0)
(9.05209 -0.0137424 0)
(8.99095 -0.010963 0)
(8.92025 -0.0044567 0)
(9.78754 -0.648788 0)
(9.97461 -0.85459 0)
(9.53774 -0.640873 0)
(8.92803 -0.414422 0)
(8.39153 -0.244756 0)
(7.99784 -0.131213 0)
(7.73063 -0.0648489 0)
(7.55265 -0.0294361 0)
(7.43613 -0.0134373 0)
(7.35302 -0.00563479 0)
(7.30102 -0.0045379 0)
(7.25122 -0.00242887 0)
(7.22563 -0.0033007 0)
(7.18649 -0.000236428 0)
(7.17769 -0.000998732 0)
(7.14169 0.00173435 0)
(7.14327 0.00102358 0)
(7.09891 0.00537477 0)
(8.53197 -0.363131 0)
(6.59525 -0.330589 0)
(5.09139 -0.12554 0)
(4.18951 -0.0168527 0)
(3.74626 0.0226031 0)
(3.55333 0.0304769 0)
(3.47744 0.0256624 0)
(3.45242 0.0179995 0)
(3.44663 0.0117294 0)
(3.44685 0.00766772 0)
(3.44873 0.00594144 0)
(3.44887 0.00559038 0)
(3.45293 0.00577462 0)
(3.45179 0.0073307 0)
(3.46557 0.00638596 0)
(3.457 0.0108122 0)
(3.48806 0.00104659 0)
(3.44399 0.0198525 0)
(0.0207112 -0.0497968 0)
(0.0742525 -0.0591511 0)
(0.132783 -0.0607738 0)
(0.192262 -0.0615909 0)
(0.253139 -0.0624098 0)
(0.315305 -0.0633139 0)
(0.378971 -0.0643004 6.9808e-20)
(0.444232 -0.0653719 -6.93003e-20)
(0.511187 -0.0665049 0)
(0.579921 -0.0676761 -6.82941e-20)
(0.650497 -0.0688596 0)
(0.723001 -0.0700384 0)
(0.797412 -0.0711871 0)
(0.873718 -0.0722716 6.63143e-20)
(0.951892 -0.0732689 0)
(1.03186 -0.0741536 0)
(1.11352 -0.0749002 -6.48515e-20)
(1.19675 -0.0754864 0)
(1.28142 -0.0758954 0)
(1.36734 -0.0761123 0)
(1.4543 -0.0761219 6.292e-20)
(1.54211 -0.0759148 0)
(1.63055 -0.0754903 6.19592e-20)
(1.7194 -0.0748489 0)
(1.80838 -0.0739898 0)
(1.89726 -0.0729191 6.0521e-20)
(1.98583 -0.0716505 0)
(2.07384 -0.0701945 -5.95633e-20)
(2.16104 -0.0685587 0)
(2.24724 -0.0667611 5.86063e-20)
(2.33224 -0.0648271 0)
(2.41583 -0.0627728 0)
(2.49782 -0.0606071 0)
(2.57808 -0.0583501 0)
(2.65648 -0.0560297 0)
(2.73287 -0.0536623 -5.57417e-20)
(2.80714 -0.0512554 0)
(2.87921 -0.0488268 1.09582e-19)
(2.94902 -0.0464012 0)
(3.01649 -0.0439913 -1.07686e-19)
(3.08159 -0.0415995 0)
(3.14429 -0.0392371 0)
(3.20459 -0.0369245 1.0486e-19)
(3.26246 -0.034672 0)
(3.31792 -0.0324774 1.02988e-19)
(3.37099 -0.0303426 -1.02057e-19)
(3.42171 -0.0282809 0)
(3.4701 -0.0263019 -1.00205e-19)
(3.51619 -0.0244022 -9.92845e-20)
(3.56005 -0.0225768 0)
(3.60173 -0.0208304 0)
(3.64128 -0.0191708 0)
(3.67875 -0.017597 0)
(3.71421 -0.0161009 0)
(3.74773 -0.0146793 9.38446e-20)
(3.77938 -0.0133363 0)
(3.80921 -0.0120735 -9.20665e-20)
(3.83729 -0.0108852 0)
(3.86369 -0.00976384 0)
(3.88848 -0.00870777 8.94349e-20)
(3.91172 -0.00771894 0)
(3.93347 -0.00679563 -8.77049e-20)
(3.9538 -0.00593115 0)
(3.97276 -0.00511949 0)
(3.99044 -0.00435949 0)
(4.00687 -0.00365185 8.43058e-20)
(4.0221 -0.00299407 0)
(4.0362 -0.00238029 0)
(4.04922 -0.0018056 8.18105e-20)
(4.06122 -0.00126869 0)
(4.07224 -0.000769507 8.01731e-20)
(4.08232 -0.000306209 0)
(4.09152 0.000124227 0)
(4.09987 0.00051962 0)
(4.10743 0.000878997 -7.69612e-20)
(4.11422 0.00120387 0)
(4.12028 0.00149853 0)
(4.12565 0.00176715 -7.46071e-20)
(4.13036 0.00201235 -7.38328e-20)
(4.13445 0.00223537 0)
(4.13795 0.00243737 -7.22998e-20)
(4.14088 0.00262092 0)
(4.14329 0.00278914 -1.41575e-19)
(4.1452 0.00294333 0)
(4.14663 0.00308542 -1.38591e-19)
(4.14759 0.00321548 0)
(4.14811 0.00333494 1.35648e-19)
(4.14822 0.00344586 0)
(4.14795 0.00354946 0)
(4.14731 0.00364435 0)
(4.14631 0.00372905 -1.29881e-19)
(4.14497 0.0038038 0)
(4.14331 0.00387091 1.27056e-19)
(4.14136 0.0039324 0)
(4.13911 0.00398833 -1.24271e-19)
(4.13659 0.00403771 -1.22892e-19)
(4.1338 0.00408101 -1.21523e-19)
(4.13077 0.0041202 0)
(4.12751 0.00415699 0)
(4.12402 0.00419137 0)
(4.12032 0.00422201 0)
(4.1164 0.0042477 0)
(4.11228 0.00426883 0)
(4.10798 0.00428714 0)
(4.10351 0.00430418 0)
(4.09887 0.00431994 1.09619e-19)
(4.09406 0.0043331 1.08342e-19)
(4.08909 0.00434258 0)
(4.08397 0.0043486 0)
(4.07871 0.0043525 0)
(4.07331 0.00435561 1.03318e-19)
(4.06779 0.00435818 0)
(4.06214 0.00435956 0)
(4.05637 0.00435893 0)
(4.05047 0.00435612 0)
(4.04446 0.00435159 -9.72286e-20)
(4.03835 0.00434607 0)
(4.03213 0.00434009 0)
(4.02582 0.00433376 9.3673e-20)
(4.0194 0.00432693 -9.25038e-20)
(4.01289 0.0043192 0)
(4.00629 0.00431019 -9.01888e-20)
(3.99959 0.00429968 0)
(3.99281 0.0042879 8.79046e-20)
(3.98595 0.00427548 0)
(3.979 0.00426312 0)
(3.97198 0.00425114 0)
(3.96489 0.00423922 0)
(3.95771 0.00422667 0)
(3.95045 0.00421288 -1.62463e-19)
(3.94312 0.00419785 -1.6029e-19)
(3.93572 0.00418217 0)
(3.92825 0.00416669 0)
(3.92071 0.00415185 0)
(3.9131 0.0041374 1.51736e-19)
(3.90543 0.0041226 0)
(3.89768 0.0041068 0)
(3.88986 0.00408994 0)
(3.88198 0.00407261 1.43401e-19)
(3.87403 0.00405544 -1.41351e-19)
(3.86602 0.00403864 0)
(3.85795 0.00402202 0)
(3.84981 0.00400519 -1.35276e-19)
(3.8416 0.00398782 -1.33277e-19)
(3.83333 0.00396978 0)
(3.82499 0.00395132 0)
(3.81659 0.00393291 1.27352e-19)
(3.80813 0.00391489 -1.25402e-19)
(3.79961 0.0038973 0)
(3.79101 0.00387978 0)
(3.78236 0.00386212 -1.19621e-19)
(3.77363 0.00384432 0)
(3.76483 0.00382638 0)
(3.75596 0.00380826 -1.13945e-19)
(3.74702 0.00379037 0)
(3.738 0.0037733 -1.10217e-19)
(3.72891 0.00375714 0)
(3.71973 0.00374222 0)
(3.71046 0.00372869 0)
(3.70109 0.00371627 1.02892e-19)
(3.6916 0.00370563 0)
(3.68199 0.00369716 0)
(3.67223 0.00369152 0)
(3.66231 0.00369038 0)
(3.6522 0.00369472 0)
(3.64184 0.00370621 0)
(3.6312 0.00372684 9.04785e-20)
(3.6202 0.00375957 8.8747e-20)
(3.60875 0.00380958 0)
(3.59673 0.00388031 0)
(3.58391 0.00399437 0)
(3.57024 0.00412617 -8.19322e-20)
(3.55477 0.00441094 0)
(3.53839 0.0046105 1.57202e-19)
(3.51707 0.00545362 -1.53915e-19)
(3.49558 0.00549453 -1.50676e-19)
(3.46178 0.00897737 1.47473e-19)
(3.42024 0.00676818 -1.44358e-19)
(3.37032 0.0306552 1.41305e-19)
(3.2035 0.0187434 0)
(0.0184431 -0.149929 0)
(0.0740258 -0.182857 0)
(0.133078 -0.188117 -1.43745e-19)
(0.19366 -0.19064 0)
(0.255617 -0.19321 1.41666e-19)
(0.318954 -0.196105 1.40638e-19)
(0.383881 -0.19933 6.98031e-20)
(0.450526 -0.202867 6.93066e-20)
(0.51905 -0.206646 0)
(0.589554 -0.210622 6.83005e-20)
(0.662101 -0.214701 0)
(0.736785 -0.218811 0)
(0.813635 -0.222879 -1.33622e-19)
(0.892644 -0.22681 -6.63207e-20)
(0.973785 -0.230524 1.31664e-19)
(1.057 -0.233941 1.3069e-19)
(1.1422 -0.236983 6.4858e-20)
(1.22926 -0.239584 0)
(1.31805 -0.241686 0)
(1.40839 -0.243238 0)
(1.50009 -0.244201 6.29352e-20)
(1.59293 -0.244547 0)
(1.68671 -0.244261 -1.85908e-19)
(1.78119 -0.243337 0)
(1.87613 -0.241778 0)
(1.97127 -0.239598 -6.0528e-20)
(2.0664 -0.236821 0)
(2.16129 -0.233477 5.95705e-20)
(2.2557 -0.229597 1.18195e-19)
(2.34941 -0.225225 -5.86136e-20)
(2.44222 -0.220408 0)
(2.53394 -0.215197 0)
(2.6244 -0.209634 0)
(2.71343 -0.203766 1.13415e-19)
(2.80089 -0.197647 1.12461e-19)
(2.88664 -0.191325 5.57494e-20)
(2.9706 -0.184845 0)
(3.05263 -0.178251 -1.09597e-19)
(3.13265 -0.171583 0)
(3.21062 -0.164878 1.07702e-19)
(3.28648 -0.158172 0)
(3.36018 -0.151499 0)
(3.43167 -0.144889 -1.04876e-19)
(3.50094 -0.138365 0)
(3.56801 -0.131944 -3.09023e-19)
(3.63286 -0.12565 1.02074e-19)
(3.69548 -0.119504 0)
(3.7559 -0.113519 1.00221e-19)
(3.81414 -0.107698 9.93008e-20)
(3.87024 -0.102052 0)
(3.92421 -0.0965946 0)
(3.97609 -0.091332 0)
(4.02593 -0.0862618 0)
(4.07378 -0.0813816 0)
(4.11967 -0.076696 -9.38609e-20)
(4.16365 -0.0722103 -1.85941e-19)
(4.20577 -0.0679212 9.20827e-20)
(4.24609 -0.0638191 0)
(4.28466 -0.0598989 -1.80648e-19)
(4.32153 -0.0561624 8.94519e-20)
(4.35674 -0.0526091 0)
(4.39036 -0.0492311 8.77209e-20)
(4.42244 -0.0460171 0)
(4.45304 -0.0429615 0)
(4.4822 -0.040064 1.70327e-19)
(4.50997 -0.0373214 -8.43215e-20)
(4.5364 -0.0347244 1.66968e-19)
(4.56155 -0.0322626 -1.65305e-19)
(4.58547 -0.0299306 -8.1826e-20)
(4.60821 -0.0277267 0)
(4.6298 -0.0256471 -8.01884e-20)
(4.6503 -0.0236839 0)
(4.66974 -0.0218295 0)
(4.68818 -0.020082 0)
(4.70565 -0.0184399 -7.6975e-20)
(4.7222 -0.0168994 0)
(4.73786 -0.0154527 -1.50801e-19)
(4.75268 -0.0140924 2.23864e-19)
(4.76669 -0.0128135 7.38474e-20)
(4.77992 -0.0116126 0)
(4.79242 -0.0104852 7.23142e-20)
(4.80421 -0.00942579 0)
(4.81533 -0.00842981 1.41603e-19)
(4.82582 -0.00749568 0)
(4.83569 -0.00662428 1.38619e-19)
(4.84497 -0.00581221 -2.74281e-19)
(4.85369 -0.00505258 -1.35675e-19)
(4.86188 -0.00434009 0)
(4.86958 -0.00367251 0)
(4.87679 -0.00304984 0)
(4.88354 -0.0024702 1.29907e-19)
(4.88984 -0.00192909 0)
(4.89574 -0.00142152 -1.27083e-19)
(4.90126 -0.000945383 0)
(4.9064 -0.00050082 3.72887e-19)
(4.91118 -8.75757e-05 1.22918e-19)
(4.91562 0.000297086 1.21549e-19)
(4.91975 0.000657307 0)
(4.92358 0.000995732 0)
(4.92713 0.00131245 0)
(4.9304 0.00160676 0)
(4.93341 0.00187922 0)
(4.93618 0.00213214 2.27057e-19)
(4.93872 0.00236839 2.24448e-19)
(4.94104 0.00258974 0)
(4.94316 0.0027962 -1.09643e-19)
(4.94509 0.00298699 -1.08365e-19)
(4.94682 0.00316212 0)
(4.94837 0.0033231 -2.11669e-19)
(4.94976 0.00347222 0)
(4.95099 0.00361136 1.03339e-19)
(4.95208 0.00374109 0)
(4.95303 0.00386102 0)
(4.95384 0.00397066 -1.99322e-19)
(4.95451 0.00407031 0)
(4.95507 0.00416111 9.72506e-20)
(4.95552 0.00424455 0)
(4.95586 0.00432195 0)
(4.9561 0.00439389 9.36927e-20)
(4.95624 0.0044603 9.25251e-20)
(4.95629 0.00452065 0)
(4.95625 0.00457445 -9.0208e-20)
(4.95612 0.00462178 0)
(4.95591 0.00466355 8.79236e-20)
(4.95563 0.0047012 1.73587e-19)
(4.95527 0.00473608 0)
(4.95485 0.00476874 0)
(4.95437 0.00479881 0)
(4.95382 0.00482538 0)
(4.95321 0.00484775 1.62503e-19)
(4.95253 0.00486602 4.80984e-19)
(4.95181 0.00488131 0)
(4.95103 0.00489512 0)
(4.9502 0.00490842 0)
(4.94932 0.00492105 -1.51775e-19)
(4.94839 0.00493196 0)
(4.94741 0.00494004 0)
(4.94638 0.00494514 2.91002e-19)
(4.9453 0.00494822 1.43436e-19)
(4.94418 0.00495056 1.41388e-19)
(4.94302 0.00495287 0)
(4.94181 0.00495508 0)
(4.94056 0.0049565 1.35312e-19)
(4.93927 0.00495631 -1.3331e-19)
(4.93793 0.00495423 0)
(4.93655 0.00495094 0)
(4.93513 0.00494758 -1.27387e-19)
(4.93366 0.00494495 3.76307e-19)
(4.93215 0.00494331 0)
(4.9306 0.0049424 0)
(4.929 0.00494161 1.19655e-19)
(4.92736 0.00494068 0)
(4.92566 0.00493995 2.31716e-19)
(4.92391 0.00494001 -1.13976e-19)
(4.9221 0.00494174 0)
(4.92023 0.00494652 1.1025e-19)
(4.91831 0.0049554 2.16802e-19)
(4.91631 0.00496937 0)
(4.91423 0.00498998 0)
(4.91205 0.0050177 -1.02924e-19)
(4.90977 0.00505475 0)
(4.90735 0.00510419 1.98647e-19)
(4.90479 0.00516893 0)
(4.90204 0.00525486 0)
(4.89908 0.00536845 0)
(4.89584 0.0055177 0)
(4.89225 0.00571251 -9.0509e-20)
(4.88822 0.00596902 -8.87773e-20)
(4.88364 0.00630755 0)
(4.87836 0.00674563 0)
(4.87202 0.00739043 0)
(4.86479 0.00805987 8.19617e-20)
(4.85485 0.00964015 0)
(4.84487 0.010021 -1.5726e-19)
(4.82674 0.0153562 1.53973e-19)
(4.81213 0.0121471 1.50733e-19)
(4.77785 0.0321103 1.47495e-19)
(4.7446 0.0161117 1.44414e-19)
(4.69479 0.089974 1.4122e-19)
(4.58851 0.0681011 0)
(0.0156984 -0.243929 0)
(0.0696225 -0.303745 0)
(0.127337 -0.312952 1.43745e-19)
(0.186697 -0.317159 1.42677e-19)
(0.247497 -0.321496 -1.41667e-19)
(0.309775 -0.326467 -1.40638e-19)
(0.373738 -0.332058 -1.94389e-23)
(0.439578 -0.338224 0)
(0.507445 -0.344836 0)
(0.577474 -0.351808 0)
(0.649793 -0.358994 0)
(0.724449 -0.366254 0)
(0.801477 -0.373446 4.00857e-19)
(0.880879 -0.380414 0)
(0.96261 -0.387016 -1.31664e-19)
(1.0466 -0.393099 -1.3069e-19)
(1.13273 -0.398536 0)
(1.22087 -0.403205 0)
(1.31084 -0.407014 0)
(1.40245 -0.409878 0)
(1.49546 -0.411728 -1.25862e-19)
(1.58964 -0.412518 0)
(1.68476 -0.412228 1.23942e-19)
(1.78056 -0.410853 0)
(1.87677 -0.408402 0)
(1.97312 -0.404905 0)
(2.06939 -0.400405 2.40258e-19)
(2.16532 -0.394955 0)
(2.26067 -0.388617 -1.18196e-19)
(2.35523 -0.381466 2.34515e-19)
(2.44878 -0.37358 0)
(2.54114 -0.365037 0)
(2.63213 -0.355917 0)
(2.72161 -0.346307 -1.13416e-19)
(2.80943 -0.336289 -1.12462e-19)
(2.89547 -0.325944 0)
(2.97962 -0.315342 0)
(3.06181 -0.304554 2.19239e-19)
(3.14196 -0.293646 2.1734e-19)
(3.22001 -0.282685 -2.15444e-19)
(3.2959 -0.271726 0)
(3.36961 -0.260816 0)
(3.44112 -0.249999 0)
(3.51043 -0.239318 0)
(3.57751 -0.22881 2.06021e-19)
(3.64238 -0.218505 2.04173e-19)
(3.70506 -0.208424 -2.02316e-19)
(3.76557 -0.19859 0)
(3.82392 -0.189025 0)
(3.88015 -0.179744 0)
(3.93429 -0.170754 0)
(3.98639 -0.16206 1.9314e-19)
(4.03649 -0.153668 0)
(4.08462 -0.145588 0)
(4.13083 -0.137821 1.87734e-19)
(4.17517 -0.13036 1.85944e-19)
(4.2177 -0.123201 0)
(4.25847 -0.116341 -3.64821e-19)
(4.29751 -0.10978 1.80651e-19)
(4.33488 -0.103514 -1.78906e-19)
(4.37064 -0.0975301 0)
(4.40484 -0.0918199 0)
(4.43754 -0.0863776 0)
(4.46877 -0.0811985 0)
(4.49858 -0.0762748 -1.70331e-19)
(4.52704 -0.0715946 -3.37295e-19)
(4.55418 -0.0671462 -1.66972e-19)
(4.58007 -0.0629217 1.65308e-19)
(4.60473 -0.0589157 0)
(4.62823 -0.0551218 -3.24025e-19)
(4.6506 -0.0515295 -3.2076e-19)
(4.67189 -0.0481272 -3.17516e-19)
(4.69214 -0.0449054 3.14292e-19)
(4.7114 -0.0418566 0)
(4.7297 -0.0389748 4.61863e-19)
(4.74709 -0.0362521 0)
(4.7636 -0.0336791 -1.50804e-19)
(4.77928 -0.0312471 -1.49246e-19)
(4.79415 -0.0289492 0)
(4.80825 -0.0267801 0)
(4.82161 -0.0247335 -2.8926e-19)
(4.83428 -0.0228031 0)
(4.84629 -0.020984 -2.83209e-19)
(4.85765 -0.0192728 0)
(4.86839 -0.0176674 2.77241e-19)
(4.87855 -0.0161609 5.48575e-19)
(4.88816 -0.0147451 0)
(4.89725 -0.0134146 0)
(4.90584 -0.0121666 0)
(4.91395 -0.0109987 2.62672e-19)
(4.9216 -0.00990513 0)
(4.92882 -0.00887881 2.56983e-19)
(4.93563 -0.00791231 0)
(4.94205 -0.00700381 0)
(4.94811 -0.00615343 -4.97194e-19)
(4.95381 -0.00535923 0)
(4.95918 -0.0046167 -2.431e-19)
(4.96423 -0.00392068 0)
(4.969 -0.00326804 -2.3768e-19)
(4.97348 -0.00265789 0)
(4.97769 -0.00208935 0)
(4.98165 -0.00155958 0)
(4.98536 -0.00106447 -6.81189e-19)
(4.98886 -0.000600729 -2.24455e-19)
(4.99215 -0.000167147 0)
(4.99524 0.000236071 0)
(4.99814 0.000609269 0)
(5.00085 0.00095457 0)
(5.0034 0.00127543 2.11676e-19)
(5.00579 0.00157495 -4.18342e-19)
(5.00804 0.00185466 -2.06687e-19)
(5.01015 0.00211453 4.08431e-19)
(5.01213 0.00235429 4.03525e-19)
(5.01398 0.00257449 1.99329e-19)
(5.01571 0.00277682 0)
(5.01733 0.00296359 3.89009e-19)
(5.01886 0.00313689 0)
(5.02029 0.00329804 -3.79494e-19)
(5.02163 0.00344742 -1.87394e-19)
(5.02289 0.0035849 0)
(5.02407 0.00371021 3.65461e-19)
(5.02517 0.00382354 1.80425e-19)
(5.0262 0.00392601 0)
(5.02717 0.00401956 1.75853e-19)
(5.02808 0.00410615 -5.20779e-19)
(5.02894 0.00418691 0)
(5.02975 0.00426181 0)
(5.03051 0.00432998 0)
(5.03122 0.00439062 0)
(5.03188 0.00444376 -3.25013e-19)
(5.03251 0.00449063 -3.20669e-19)
(5.0331 0.00453313 0)
(5.03366 0.00457291 0)
(5.0342 0.00461045 0)
(5.0347 0.00464494 0)
(5.03517 0.00467499 0)
(5.03562 0.00469988 0)
(5.03603 0.00472035 -2.91016e-19)
(5.03643 0.00473812 -2.67165e-24)
(5.03681 0.00475483 0)
(5.03716 0.00477101 0)
(5.0375 0.00478616 -2.74657e-19)
(5.03783 0.00479909 0)
(5.03813 0.0048088 2.66636e-19)
(5.03841 0.00481543 2.62658e-19)
(5.03868 0.00482055 0)
(5.03893 0.00482602 0)
(5.03917 0.00483268 -2.50884e-19)
(5.0394 0.00484052 -4.94008e-19)
(5.03961 0.00484922 0)
(5.0398 0.00485804 0)
(5.03998 0.00486647 0)
(5.04013 0.00487528 -2.3173e-19)
(5.04027 0.00488619 2.27968e-19)
(5.04038 0.00490076 0)
(5.04046 0.00492055 4.41017e-19)
(5.04052 0.00494746 2.16811e-19)
(5.04054 0.00498285 -4.26279e-19)
(5.04051 0.00502896 0)
(5.04043 0.00508797 0)
(5.04028 0.00516325 -4.04493e-19)
(5.04003 0.00526069 -1.9866e-19)
(5.03968 0.00538624 0)
(5.03918 0.0055488 0)
(5.03851 0.00576034 0)
(5.03761 0.00603432 0)
(5.03643 0.00638952 -3.62051e-19)
(5.03483 0.0068508 0)
(5.0328 0.0074587 0)
(5.03 0.00824565 0)
(5.02657 0.00933621 0)
(5.02155 0.0106834 0)
(5.0158 0.012889 0)
(5.00645 0.0149458 -3.14511e-19)
(4.99632 0.0207047 0)
(4.97902 0.0223879 0)
(4.95897 0.0416047 -5.90044e-19)
(4.92901 0.0408576 2.88656e-19)
(4.89103 0.105485 -2.82607e-19)
(4.8455 0.120469 2.76216e-19)
(0.0118694 -0.328972 0)
(0.0632349 -0.420984 -2.89458e-19)
(0.118934 -0.435135 0)
(0.176421 -0.441246 -1.42677e-19)
(0.235405 -0.447598 0)
(0.296043 -0.454957 0)
(0.358567 -0.463313 1.39541e-19)
(0.423214 -0.472548 0)
(0.4902 -0.482517 0)
(0.559655 -0.493044 0)
(0.631733 -0.503891 0)
(0.706506 -0.514892 0)
(0.784018 -0.525783 -5.34456e-19)
(0.864249 -0.536323 -2.65273e-19)
(0.947153 -0.546329 2.63332e-19)
(1.03263 -0.55553 0)
(1.12053 -0.563765 0)
(1.21064 -0.570841 0)
(1.30275 -0.576617 0)
(1.39664 -0.580979 0)
(1.49202 -0.583831 -2.51792e-19)
(1.58862 -0.585113 -2.49878e-19)
(1.68613 -0.584805 2.47965e-19)
(1.78427 -0.582913 -2.46052e-19)
(1.88274 -0.579455 0)
(1.98124 -0.574481 0)
(2.0795 -0.568066 -2.40258e-19)
(2.17728 -0.560298 0)
(2.2743 -0.551274 0)
(2.37033 -0.541101 -2.34516e-19)
(2.46516 -0.529898 -2.32654e-19)
(2.55864 -0.517783 -2.30739e-19)
(2.65056 -0.504876 0)
(2.74077 -0.491298 0)
(2.82913 -0.477167 2.25001e-19)
(2.91557 -0.462591 0)
(3 -0.447674 0)
(3.08231 -0.43252 -2.19239e-19)
(3.16243 -0.417223 2.17414e-19)
(3.24034 -0.401862 -2.15514e-19)
(3.31602 -0.386511 0)
(3.38944 -0.37124 0)
(3.46057 -0.356118 -4.19626e-19)
(3.52941 -0.341198 0)
(3.596 -0.326518 -4.12124e-19)
(3.66034 -0.312117 -6.12566e-19)
(3.72245 -0.298037 6.0699e-19)
(3.78234 -0.28431 -4.0097e-19)
(3.84007 -0.270955 0)
(3.89567 -0.257984 0)
(3.94918 -0.245412 -3.89949e-19)
(4.00065 -0.233254 -1.9314e-19)
(4.0501 -0.221522 0)
(4.09759 -0.210214 0)
(4.14319 -0.199325 -1.87734e-19)
(4.18694 -0.188854 -3.71921e-19)
(4.22888 -0.178805 0)
(4.26907 -0.169175 3.64822e-19)
(4.30756 -0.159953 -3.61326e-19)
(4.3444 -0.151125 3.57834e-19)
(4.37966 -0.142684 0)
(4.41337 -0.134626 0)
(4.44558 -0.126943 0)
(4.47636 -0.119621 0)
(4.50575 -0.112644 0)
(4.5338 -0.105999 3.37296e-19)
(4.56057 -0.0996792 0)
(4.58608 -0.0936746 0)
(4.6104 -0.0879738 0)
(4.63357 -0.0825628 6.48056e-19)
(4.65563 -0.0774278 3.20761e-19)
(4.67664 -0.0725571 3.17516e-19)
(4.69662 -0.0679414 -6.28589e-19)
(4.71562 -0.0635711 3.11093e-19)
(4.73368 -0.0594357 -3.0791e-19)
(4.75084 -0.055523 0)
(4.76714 -0.0518213 3.0161e-19)
(4.78262 -0.0483203 0)
(4.79731 -0.0450117 0)
(4.81124 -0.0418877 0)
(4.82445 -0.03894 5.78522e-19)
(4.83697 -0.0361608 -2.86226e-19)
(4.84883 -0.0335424 -2.8321e-19)
(4.86006 -0.0310769 -5.60431e-19)
(4.87069 -0.0287534 -8.31724e-19)
(4.88075 -0.0265623 -2.74288e-19)
(4.89026 -0.024497 0)
(4.89926 -0.0225533 -5.36879e-19)
(4.90776 -0.0207278 0)
(4.91579 -0.0190143 -7.88016e-19)
(4.92337 -0.0174053 0)
(4.93053 -0.0158917 -7.7095e-19)
(4.93729 -0.0144693 0)
(4.94366 -0.0131353 0)