/*--------------------------------*- C++ -*----------------------------------*\
| =========                 |                                                 |
| \\      /  F ield         | OpenFOAM: The Open Source CFD Toolbox           |
|  \\    /   O peration     | Version:  2.1.x                                 |
|   \\  /    A nd           | Web:      www.OpenFOAM.org                      |
|    \\/     M anipulation  |                                                 |
\*---------------------------------------------------------------------------*/
FoamFile
{
    version     2.0;
    format      ascii;
    class       volSymmTensorField;
    location    "0.003";
    object      UPrime2Mean;
}
// * * * * * * * * * * * * * * * * * * * * * * * * * * * * * * * * * * * * * //

dimensions      [0 2 -2 0 0 0 0];

internalField   nonuniform List<symmTensor> 
12225
(
(0.250197 0.00642761 0 0.00666948 0 0)
(1.84844 -0.0353263 0 0.00172982 0 0)
(2.67527 -0.0115342 0 0.000152324 0 0)
(3.20124 -0.00393445 0 2.78087e-05 0 0)
(3.64717 -0.00292669 0 3.55607e-05 0 0)
(3.8439 -0.00296487 0 4.28844e-05 0 0)
(4.09986 -0.00832192 0 0.000128139 0 0)
(4.10872 -0.00940721 0 0.000252609 0 0)
(4.3629 -0.0112135 0 0.000425862 0 0)
(4.37207 -0.0144474 0 0.000633196 0 0)
(4.62282 -0.0152091 0 0.000880609 0 0)
(4.84238 -0.0278034 0 0.00137174 0 0)
(5.03952 -0.035288 0 0.00195655 0 0)
(5.6359 0.000930074 0 0.00313867 0 0)
(6.02628 -0.242945 0 0.018964 0 0)
(7.53828 0.429974 0 0.0600405 0 0)
(11.0506 -2.10725 0 0.589736 0 0)
(20.0589 1.58504 0 0.342536 0 0)
(0.652688 0.154248 0 0.0611284 0 0)
(0.509197 -0.0757452 0 0.0481128 0 0)
(0.887607 -0.0903524 0 0.0165347 0 0)
(1.26832 -0.0812749 0 0.00704546 0 0)
(1.91964 -0.0697203 0 0.00365562 0 0)
(2.22969 -0.0461631 0 0.00209462 0 0)
(2.95907 -0.0388971 0 0.00268415 0 0)
(2.8719 -0.0289543 0 0.00245036 0 0)
(3.30267 -0.0402869 0 0.00284048 0 0)
(3.50461 -0.0211467 0 0.00404854 0 0)
(3.26384 -0.0697651 0 0.0070382 0 0)
(4.50778 -0.0935701 0 0.014332 0 0)
(3.32257 -0.0709369 0 0.0233033 0 0)
(5.87303 -0.259005 0 0.0521128 0 0)
(4.02276 -0.0732103 0 0.0893256 0 0)
(8.4584 -0.777848 0 0.243702 0 0)
(7.40541 -0.855677 0 0.291862 0 0)
(14.4584 -3.20827 0 1.30461 0 0)
(0.780172 0.139163 0 0.0364784 0 0)
(0.389792 0.0290237 0 0.0579657 0 0)
(0.407912 0.00428483 0 0.0319591 0 0)
(0.382212 -0.0113895 0 0.0230464 0 0)
(0.50291 -0.0449713 0 0.0163669 0 0)
(0.559329 -0.0407391 0 0.0122272 0 0)
(0.959015 -0.0765509 0 0.0178239 0 0)
(0.914428 -0.0494274 0 0.0142841 0 0)
(1.32684 -0.0879105 0 0.0178439 0 0)
(1.34086 -0.065819 0 0.0297982 0 0)
(1.60584 -0.150812 0 0.0528359 0 0)
(1.79936 -0.180153 0 0.0881166 0 0)
(1.99517 -0.258601 0 0.140476 0 0)
(2.38313 -0.320075 0 0.192189 0 0)
(2.56431 -0.434455 0 0.295431 0 0)
(3.35551 -0.79758 0 0.485872 0 0)
(3.48374 -0.954711 0 0.579557 0 0)
(5.13973 -2.80037 0 2.7234 0 0)
(0.750686 0.0952443 0 0.0253318 0 0)
(0.433277 0.0233247 0 0.0569936 0 0)
(0.451511 0.0419045 0 0.0347803 0 0)
(0.495296 0.0510817 0 0.028807 0 0)
(0.505292 0.0217402 0 0.0285029 0 0)
(0.487019 0.00101979 0 0.0357116 0 0)
(0.470556 -0.0312731 0 0.0504958 0 0)
(0.466315 -0.0451439 0 0.0439368 0 0)
(0.545162 -0.089109 0 0.0550116 0 0)
(0.597504 -0.116224 0 0.076641 0 0)
(0.734778 -0.175225 0 0.118766 0 0)
(0.794154 -0.205038 0 0.164747 0 0)
(1.01492 -0.269978 0 0.222259 0 0)
(1.13464 -0.299671 0 0.280386 0 0)
(1.44927 -0.4677 0 0.45214 0 0)
(1.47428 -0.47715 0 0.514255 0 0)
(1.85418 -0.981073 0 1.04014 0 0)
(1.98765 -1.37281 0 1.82328 0 0)
(0.723452 0.0892763 0 0.0201472 0 0)
(0.386028 0.0154338 0 0.0411515 0 0)
(0.424071 0.033994 0 0.03933 0 0)
(0.473958 0.0446017 0 0.0353095 0 0)
(0.495854 0.0372119 0 0.0419607 0 0)
(0.50152 0.011915 0 0.0441641 0 0)
(0.484323 0.0122162 0 0.0608872 0 0)
(0.484375 -0.0136149 0 0.0756026 0 0)
(0.509264 -0.044939 0 0.0679533 0 0)
(0.516222 -0.0631919 0 0.0924154 0 0)
(0.536101 -0.0827747 0 0.119499 0 0)
(0.590983 -0.114342 0 0.166065 0 0)
(0.667489 -0.150977 0 0.212689 0 0)
(0.766887 -0.233649 0 0.300795 0 0)
(0.871947 -0.268381 0 0.345006 0 0)
(1.01603 -0.454406 0 0.629314 0 0)
(1.19146 -0.690143 0 0.967418 0 0)
(1.26697 -0.992435 0 1.7508 0 0)
(0.738735 0.0611002 0 0.0118649 0 0)
(0.378224 0.00325924 0 0.0355694 0 0)
(0.411457 0.0199908 0 0.0336287 0 0)
(0.457541 0.0430895 0 0.0236868 0 0)
(0.490337 0.037687 0 0.0234802 0 0)
(0.472528 0.0295557 0 0.0306042 0 0)
(0.456686 0.0303619 0 0.0465617 0 0)
(0.468801 0.0106759 0 0.0368353 0 0)
(0.473955 0.00193031 0 0.0454982 0 0)
(0.46253 -0.0147157 0 0.0574756 0 0)
(0.472752 -0.0266007 0 0.0915183 0 0)
(0.492345 -0.0400923 0 0.126022 0 0)
(0.517048 -0.0684359 0 0.173949 0 0)
(0.546218 -0.0949601 0 0.213043 0 0)
(0.607068 -0.171006 0 0.349823 0 0)
(0.696739 -0.303372 0 0.551831 0 0)
(0.790822 -0.480152 0 0.870655 0 0)
(0.870562 -0.652031 0 1.70538 0 0)
(0.738904 0.0524423 0 0.00893369 0 0)
(0.375597 0.000112677 0 0.021805 0 0)
(0.39026 0.0110131 0 0.0280812 0 0)
(0.406827 0.0255337 0 0.0244454 0 0)
(0.421277 0.0264501 0 0.0244118 0 0)
(0.406148 0.00472671 0 0.024316 0 0)
(0.407131 0.00233074 0 0.0350544 0 0)
(0.413151 0.000809446 0 0.0454246 0 0)
(0.418465 -0.0109376 0 0.0387561 0 0)
(0.420177 -0.01915 0 0.0518756 0 0)
(0.432558 -0.0195512 0 0.0649242 0 0)
(0.449181 -0.0338599 0 0.0892593 0 0)
(0.482127 -0.0569398 0 0.116085 0 0)
(0.516073 -0.0966744 0 0.178419 0 0)
(0.569066 -0.150282 0 0.239062 0 0)
(0.616776 -0.22256 0 0.393021 0 0)
(0.648259 -0.311924 0 0.724086 0 0)
(0.664347 -0.394971 0 1.36646 0 0)
(0.797087 0.0583122 0 0.0125457 0 0)
(0.364862 0.000181008 0 0.0229256 0 0)
(0.379753 0.0159375 0 0.0320791 0 0)
(0.40735 0.0320272 0 0.0258887 0 0)
(0.427256 0.0277488 0 0.0213787 0 0)
(0.409042 0.0170628 0 0.0232273 0 0)
(0.397944 0.0160953 0 0.0281301 0 0)
(0.407362 0.00645658 0 0.0235077 0 0)
(0.419783 -0.00620936 0 0.025434 0 0)
(0.415998 -0.0169558 0 0.0339725 0 0)
(0.421162 -0.0258626 0 0.0453655 0 0)
(0.433642 -0.0338876 0 0.0627385 0 0)
(0.456729 -0.0511885 0 0.0841805 0 0)
(0.479368 -0.082624 0 0.123699 0 0)
(0.507198 -0.119782 0 0.19737 0 0)
(0.52492 -0.162017 0 0.346943 0 0)
(0.545984 -0.21585 0 0.552732 0 0)
(0.599666 -0.261341 0 0.945035 0 0)
(0.707596 0.0346152 0 0.00779794 0 0)
(0.373884 -0.00955965 0 0.0164537 0 0)
(0.383708 -0.000515022 0 0.0234274 0 0)
(0.386974 0.0129608 0 0.0243976 0 0)
(0.394018 0.0166719 0 0.0209907 0 0)
(0.388232 0.0070643 0 0.0201017 0 0)
(0.384619 0.00371402 0 0.025938 0 0)
(0.387626 0.00127493 0 0.0294834 0 0)
(0.395639 -0.00771909 0 0.0264516 0 0)
(0.401121 -0.0183572 0 0.0314623 0 0)
(0.409155 -0.0227042 0 0.0454418 0 0)
(0.414609 -0.0305264 0 0.0641267 0 0)
(0.429819 -0.0514537 0 0.0919071 0 0)
(0.44719 -0.080862 0 0.144593 0 0)
(0.464847 -0.111201 0 0.208851 0 0)
(0.472737 -0.135725 0 0.306267 0 0)
(0.506819 -0.164272 0 0.479545 0 0)
(0.601855 -0.174669 0 0.805898 0 0)
(0.749336 0.0363225 0 0.00919038 0 0)
(0.375737 -0.00903643 0 0.0139135 0 0)
(0.379101 -0.00383386 0 0.0220542 0 0)
(0.377677 0.00828573 0 0.0223478 0 0)
(0.385601 0.012824 0 0.0197999 0 0)
(0.383945 0.00428921 0 0.0213126 0 0)
(0.381937 -0.00114654 0 0.0262887 0 0)
(0.382228 -0.004257 0 0.026393 0 0)
(0.387466 -0.00814425 0 0.0266409 0 0)
(0.392307 -0.0155902 0 0.037132 0 0)
(0.40148 -0.0261524 0 0.0507342 0 0)
(0.413379 -0.0371732 0 0.0678168 0 0)
(0.429553 -0.0526049 0 0.0919896 0 0)
(0.438175 -0.0745159 0 0.138276 0 0)
(0.447055 -0.100684 0 0.208014 0 0)
(0.456794 -0.123671 0 0.320771 0 0)
(0.472452 -0.147193 0 0.472228 0 0)
(0.523294 -0.150332 0 0.698305 0 0)
(0.732076 0.0311177 0 0.0126342 0 0)
(0.371687 -0.0109133 0 0.0137932 0 0)
(0.382289 -0.00632688 0 0.0178484 0 0)
(0.37509 0.00490149 0 0.0203177 0 0)
(0.372853 0.00677199 0 0.0207867 0 0)
(0.369783 0.000378137 0 0.0209652 0 0)
(0.370962 -0.00505644 0 0.024806 0 0)
(0.374185 -0.00871281 0 0.0275409 0 0)
(0.381531 -0.0132259 0 0.0290362 0 0)
(0.387814 -0.0207386 0 0.0335725 0 0)
(0.394237 -0.0274982 0 0.0450494 0 0)
(0.397518 -0.0341839 0 0.0661383 0 0)
(0.406332 -0.049735 0 0.0961594 0 0)
(0.415971 -0.0710082 0 0.143294 0 0)
(0.42851 -0.0893286 0 0.200889 0 0)
(0.427335 -0.0917332 0 0.281757 0 0)
(0.427395 -0.0923852 0 0.396746 0 0)
(0.473571 -0.0935816 0 0.604857 0 0)
(0.763219 0.0363859 0 0.00882998 0 0)
(0.360582 -0.010107 0 0.0129817 0 0)
(0.358369 -0.00617879 0 0.0177903 0 0)
(0.353822 0.00187103 0 0.0203279 0 0)
(0.358813 0.00243896 0 0.0207312 0 0)
(0.361565 -0.00382519 0 0.0204695 0 0)
(0.364298 -0.00951157 0 0.0244893 0 0)
(0.370002 -0.0142596 0 0.0291913 0 0)
(0.377057 -0.0207056 0 0.034251 0 0)
(0.3813 -0.0294009 0 0.0427243 0 0)
(0.386477 -0.039695 0 0.0579096 0 0)
(0.390841 -0.0476979 0 0.0750549 0 0)
(0.39935 -0.0567031 0 0.0952146 0 0)
(0.403408 -0.0673103 0 0.132814 0 0)
(0.405303 -0.079792 0 0.186526 0 0)
(0.405701 -0.0812501 0 0.255982 0 0)
(0.410788 -0.0761479 0 0.345848 0 0)
(0.435165 -0.0679154 0 0.531901 0 0)
(0.735447 0.0341315 0 0.00919672 0 0)
(0.36426 -0.0125409 0 0.0142219 0 0)
(0.362343 -0.00722442 0 0.018887 0 0)
(0.354048 0.00325925 0 0.0222081 0 0)
(0.355548 0.00312226 0 0.0250261 0 0)
(0.357881 -0.0037469 0 0.0267113 0 0)
(0.361131 -0.00959348 0 0.0303379 0 0)
(0.364533 -0.0148395 0 0.0333495 0 0)
(0.368262 -0.0203226 0 0.0374565 0 0)
(0.371227 -0.0253088 0 0.043153 0 0)
(0.375236 -0.0304106 0 0.0542735 0 0)
(0.376756 -0.0346272 0 0.0707471 0 0)
(0.380567 -0.0422058 0 0.0949336 0 0)
(0.382945 -0.0506475 0 0.128176 0 0)
(0.38628 -0.0552726 0 0.168087 0 0)
(0.388475 -0.0467297 0 0.219818 0 0)
(0.391867 -0.0334943 0 0.289609 0 0)
(0.414148 -0.00880689 0 0.444291 0 0)
(0.789889 0.0444864 0 0.014744 0 0)
(0.378199 -0.0108872 0 0.0171421 0 0)
(0.367661 -0.00834958 0 0.0192452 0 0)
(0.350445 -0.000575101 0 0.0210143 0 0)
(0.350974 0.000654616 0 0.0235881 0 0)
(0.358834 -0.00370736 0 0.0253688 0 0)
(0.366132 -0.00747335 0 0.0294103 0 0)
(0.370965 -0.010518 0 0.0347599 0 0)
(0.371798 -0.0140742 0 0.0426089 0 0)
(0.368636 -0.0185798 0 0.0502374 0 0)
(0.366575 -0.0246567 0 0.0605635 0 0)
(0.367587 -0.0292082 0 0.0736373 0 0)
(0.373064 -0.0342324 0 0.090296 0 0)
(0.374198 -0.0389506 0 0.11385 0 0)
(0.372447 -0.0418933 0 0.143953 0 0)
(0.373847 -0.0349209 0 0.177588 0 0)
(0.378644 -0.0215182 0 0.218179 0 0)
(0.394214 -0.00145488 0 0.351339 0 0)
(0.703056 0.0419016 0 0.0123903 0 0)
(0.384429 -0.01743 0 0.0160775 0 0)
(0.384159 -0.0145971 0 0.0175018 0 0)
(0.362337 -0.00377888 0 0.0192276 0 0)
(0.353066 -0.000966515 0 0.021243 0 0)
(0.352119 -0.00505836 0 0.0230105 0 0)
(0.357021 -0.00908655 0 0.0273786 0 0)
(0.363027 -0.0121125 0 0.0325753 0 0)
(0.368024 -0.0143529 0 0.0401339 0 0)
(0.368897 -0.0153061 0 0.0479904 0 0)
(0.368924 -0.0146592 0 0.0588895 0 0)
(0.368754 -0.0126699 0 0.0717972 0 0)
(0.369543 -0.0131185 0 0.0864287 0 0)
(0.371363 -0.013988 0 0.1024 0 0)
(0.375474 -0.0111787 0 0.120147 0 0)
(0.383275 0.000207632 0 0.143222 0 0)
(0.393128 0.0157126 0 0.172358 0 0)
(0.414996 0.0356711 0 0.213281 0 0)
(0.67011 0.0232744 0 0.0137136 0 0)
(0.386756 -0.00841318 0 0.0160508 0 0)
(0.393663 -0.0111773 0 0.0160275 0 0)
(0.373273 -0.0072942 0 0.0167383 0 0)
(0.360269 -0.00682899 0 0.0176637 0 0)
(0.35177 -0.0100839 0 0.0181664 0 0)
(0.350103 -0.0138254 0 0.0212234 0 0)
(0.352686 -0.0174284 0 0.0258354 0 0)
(0.358716 -0.0203149 0 0.0331598 0 0)
(0.361644 -0.0210499 0 0.041515 0 0)
(0.361385 -0.0191484 0 0.0511563 0 0)
(0.359428 -0.0142889 0 0.0599842 0 0)
(0.359654 -0.00974832 0 0.0682801 0 0)
(0.36205 -0.0059968 0 0.0766378 0 0)
(0.364805 -0.00366605 0 0.0845455 0 0)
(0.371848 0.00321636 0 0.0908011 0 0)
(0.380999 0.0136288 0 0.097116 0 0)
(0.397413 0.0282382 0 0.117614 0 0)
(0.759718 0.0160615 0 0.0117988 0 0)
(0.365188 -0.0066259 0 0.0132422 0 0)
(0.361062 -0.00584088 0 0.0153074 0 0)
(0.35203 -0.00094364 0 0.0159008 0 0)
(0.347135 -0.00359471 0 0.0155022 0 0)
(0.341831 -0.0107623 0 0.0144641 0 0)
(0.33948 -0.015929 0 0.0150521 0 0)
(0.339319 -0.0190118 0 0.0171134 0 0)
(0.340915 -0.0207757 0 0.0210813 0 0)
(0.342536 -0.0208919 0 0.0252755 0 0)
(0.343625 -0.0188087 0 0.0301809 0 0)
(0.34415 -0.01515 0 0.0354251 0 0)
(0.34624 -0.0125804 0 0.0410893 0 0)
(0.348304 -0.011257 0 0.0465754 0 0)
(0.350517 -0.00932637 0 0.0524384 0 0)
(0.355716 -0.00430845 0 0.059093 0 0)
(0.361627 0.00140261 0 0.0648362 0 0)
(0.370807 0.00706269 0 0.0684237 0 0)
(0.77593 0.038694 0 0.0106727 0 0)
(0.375644 -0.0100916 0 0.0141829 0 0)
(0.356134 -0.00692991 0 0.0174299 0 0)
(0.348831 0.00286756 0 0.0191418 0 0)
(0.355969 0.00559874 0 0.0213348 0 0)
(0.360609 0.00209029 0 0.0224917 0 0)
(0.361277 -0.00130637 0 0.0224698 0 0)
(0.358911 -0.00341887 0 0.0216544 0 0)
(0.355118 -0.00439564 0 0.0219864 0 0)
(0.354505 -0.00389606 0 0.0228853 0 0)
(0.359525 -0.00167074 0 0.0249107 0 0)
(0.367202 0.000828536 0 0.0276139 0 0)
(0.372746 0.00216049 0 0.0311497 0 0)
(0.373356 0.00256838 0 0.0352136 0 0)
(0.371948 0.00367795 0 0.0394208 0 0)
(0.374345 0.00649193 0 0.043218 0 0)
(0.379865 0.0104608 0 0.0460798 0 0)
(0.387445 0.0142039 0 0.0481737 0 0)
(0.793484 0.0327563 0 0.0158211 0 0)
(0.376618 -0.00696463 0 0.0124956 0 0)
(0.358427 -0.00969387 0 0.0122038 0 0)
(0.356227 -0.000443172 0 0.0136097 0 0)
(0.368814 0.00550646 0 0.0156853 0 0)
(0.379246 0.00552434 0 0.0172544 0 0)
(0.383021 0.00435328 0 0.0183138 0 0)
(0.381411 0.00313169 0 0.0181655 0 0)
(0.376583 0.00231145 0 0.0181404 0 0)
(0.374306 0.00262969 0 0.0184912 0 0)
(0.378392 0.00485598 0 0.0201091 0 0)
(0.385197 0.00747924 0 0.0226314 0 0)
(0.388628 0.00929124 0 0.0257795 0 0)
(0.386296 0.00978636 0 0.0289762 0 0)
(0.383809 0.010543 0 0.0318111 0 0)
(0.386477 0.0122487 0 0.033863 0 0)
(0.393009 0.0146654 0 0.0346699 0 0)
(0.400502 0.0159091 0 0.0340835 0 0)
(0.710901 0.0311294 0 0.0126025 0 0)
(0.364312 -0.0160916 0 0.0128034 0 0)
(0.373504 -0.0165228 0 0.0123541 0 0)
(0.358096 -0.00685211 0 0.0124611 0 0)
(0.349193 -0.0023625 0 0.0131973 0 0)
(0.344912 -0.00332522 0 0.0144531 0 0)
(0.347604 -0.00503679 0 0.0164251 0 0)
(0.355556 -0.00539393 0 0.0180272 0 0)
(0.364657 -0.00433936 0 0.0194015 0 0)
(0.371466 -0.00240477 0 0.0200954 0 0)
(0.376731 0.000642498 0 0.0210722 0 0)
(0.381265 0.00318722 0 0.0223037 0 0)
(0.385657 0.00467365 0 0.0239148 0 0)
(0.390557 0.00499989 0 0.0254833 0 0)
(0.398369 0.00647903 0 0.0269206 0 0)
(0.410168 0.00938196 0 0.0278649 0 0)
(0.424119 0.0135087 0 0.0280914 0 0)
(0.437764 0.0167063 0 0.0275263 0 0)
(0.694275 0.00646861 0 0.00838487 0 0)
(0.376077 -0.00600136 0 0.00493269 0 0)
(0.383354 -0.00795234 0 0.00322272 0 0)
(0.37082 -0.0090477 0 0.00275678 0 0)
(0.365622 -0.00871078 0 0.00305739 0 0)
(0.365822 -0.00769137 0 0.00367109 0 0)
(0.372987 -0.00623051 0 0.0044706 0 0)
(0.383507 -0.00553603 0 0.00478849 0 0)
(0.392816 -0.00563135 0 0.00495707 0 0)
(0.399995 -0.00570523 0 0.00510094 0 0)
(0.407247 -0.0042764 0 0.00546049 0 0)
(0.414685 -0.00248713 0 0.00580356 0 0)
(0.419805 -0.0012178 0 0.00610764 0 0)
(0.422872 -0.00136143 0 0.00621087 0 0)
(0.427631 -0.00146807 0 0.00620789 0 0)
(0.437294 -0.00102661 0 0.00609031 0 0)
(0.449141 5.44349e-05 0 0.00593729 0 0)
(0.460026 0.000718429 0 0.00573651 0 0)
(0.774949 -0.00192286 0 0.00823269 0 0)
(0.354525 -0.00413604 0 0.00332159 0 0)
(0.353188 -0.00797349 0 0.00145881 0 0)
(0.356571 -0.010866 0 0.00107007 0 0)
(0.369897 -0.00975657 0 0.00118075 0 0)
(0.381533 -0.00714163 0 0.00153538 0 0)
(0.389594 -0.00459448 0 0.00215573 0 0)
(0.394419 -0.00319729 0 0.00273137 0 0)
(0.398143 -0.00205022 0 0.00336845 0 0)
(0.405165 -0.000512303 0 0.00402698 0 0)
(0.417218 0.00216158 0 0.00470753 0 0)
(0.430134 0.00468676 0 0.00517896 0 0)
(0.437215 0.00609164 0 0.00544456 0 0)
(0.437451 0.0057969 0 0.00552103 0 0)
(0.436909 0.00548063 0 0.00564215 0 0)
(0.440851 0.00549491 0 0.00570225 0 0)
(0.447843 0.00614113 0 0.00579836 0 0)
(0.452042 0.00598853 0 0.00569318 0 0)
(0.832939 0.00567316 0 0.00833598 0 0)
(0.369776 -0.00735778 0 0.00356986 0 0)
(0.362566 -0.0123445 0 0.00262154 0 0)
(0.393108 -0.0186836 0 0.00262952 0 0)
(0.435027 -0.0188384 0 0.00240986 0 0)
(0.461708 -0.0159328 0 0.00219168 0 0)
(0.472167 -0.012681 0 0.00207048 0 0)
(0.475644 -0.0104473 0 0.00194422 0 0)
(0.482081 -0.00819443 0 0.00184706 0 0)
(0.497303 -0.00579183 0 0.00187634 0 0)
(0.519663 -0.00275387 0 0.00201754 0 0)
(0.539599 -0.000618378 0 0.00211621 0 0)
(0.547688 0.000338564 0 0.00213492 0 0)
(0.542415 0.000218846 0 0.00220697 0 0)
(0.534264 0.000966936 0 0.00248322 0 0)
(0.530562 0.0023017 0 0.00285978 0 0)
(0.530784 0.00404128 0 0.0032507 0 0)
(0.527196 0.004742 0 0.0034723 0 0)
(0.775132 -0.0021702 0 0.00807635 0 0)
(0.370581 -0.0120547 0 0.00685821 0 0)
(0.367628 -0.0175906 0 0.0071063 0 0)
(0.394964 -0.0245353 0 0.00629384 0 0)
(0.429459 -0.0238797 0 0.0042579 0 0)
(0.450155 -0.0209053 0 0.00290402 0 0)
(0.459474 -0.01861 0 0.00259378 0 0)
(0.46513 -0.0164985 0 0.00291173 0 0)
(0.472873 -0.0129425 0 0.00333076 0 0)
(0.485649 -0.00822458 0 0.00349237 0 0)
(0.502012 -0.0030391 0 0.00343481 0 0)
(0.514839 0.00113659 0 0.00341729 0 0)
(0.518372 0.00450309 0 0.00361493 0 0)
(0.51354 0.00729122 0 0.00405004 0 0)
(0.509846 0.0105936 0 0.00473267 0 0)
(0.511598 0.0135147 0 0.00545481 0 0)
(0.517105 0.0157097 0 0.00598577 0 0)
(0.519845 0.0159724 0 0.00599032 0 0)
(0.759484 -0.011177 0 0.00493377 0 0)
(0.361763 -0.00777577 0 0.00730456 0 0)
(0.373465 -0.0209105 0 0.00990789 0 0)
(0.4214 -0.0345315 0 0.00880602 0 0)
(0.469335 -0.0349659 0 0.00602474 0 0)
(0.497077 -0.0306318 0 0.00386694 0 0)
(0.512153 -0.0262591 0 0.00244979 0 0)
(0.524157 -0.0221507 0 0.00159987 0 0)
(0.537605 -0.0172117 0 0.00109442 0 0)
(0.554286 -0.0118146 0 0.0008335 0 0)
(0.572495 -0.00688023 0 0.000785929 0 0)
(0.585965 -0.00384683 0 0.000861326 0 0)
(0.591009 -0.00200089 0 0.000923923 0 0)
(0.589521 -0.000310184 0 0.00107291 0 0)
(0.589907 0.00243623 0 0.00140772 0 0)
(0.594019 0.00501078 0 0.00180374 0 0)
(0.600129 0.00678447 0 0.00209816 0 0)
(0.601236 0.00690551 0 0.00214713 0 0)
(0.67512 -0.0376133 0 0.009433 0 0)
(0.366411 -0.00731153 0 0.0177162 0 0)
(0.392164 -0.0233964 0 0.0218878 0 0)
(0.448193 -0.0419721 0 0.0176923 0 0)
(0.497374 -0.045689 0 0.0128895 0 0)
(0.523137 -0.0434047 0 0.0106272 0 0)
(0.539899 -0.038528 0 0.00949846 0 0)
(0.557996 -0.0311531 0 0.00825016 0 0)
(0.580084 -0.0224731 0 0.00618078 0 0)
(0.604528 -0.0146545 0 0.00382527 0 0)
(0.627051 -0.00870262 0 0.00211367 0 0)
(0.642428 -0.00468823 0 0.00132431 0 0)
(0.648754 -0.00103135 0 0.00116474 0 0)
(0.648773 0.00369863 0 0.0012885 0 0)
(0.648731 0.00946869 0 0.00149993 0 0)
(0.650635 0.0142026 0 0.00180684 0 0)
(0.652763 0.0170513 0 0.0021141 0 0)
(0.651098 0.0175777 0 0.00221134 0 0)
(0.769663 -0.0579189 0 0.00918048 0 0)
(0.363969 -0.0207127 0 0.0270657 0 0)
(0.412036 -0.048505 0 0.0334803 0 0)
(0.517226 -0.0716945 0 0.0274176 0 0)
(0.589994 -0.0763399 0 0.022943 0 0)
(0.612421 -0.0717583 0 0.0198235 0 0)
(0.609959 -0.0611644 0 0.0166825 0 0)
(0.599844 -0.0460891 0 0.0127525 0 0)
(0.591218 -0.0314091 0 0.00841979 0 0)
(0.58592 -0.0201418 0 0.00467334 0 0)
(0.582969 -0.0133552 0 0.00234246 0 0)
(0.577309 -0.00908513 0 0.00136553 0 0)
(0.569154 -0.00531031 0 0.0011141 0 0)
(0.559626 -0.000604993 0 0.00100711 0 0)
(0.552551 0.00404323 0 0.000905362 0 0)
(0.547357 0.00765938 0 0.000945895 0 0)
(0.543793 0.00954222 0 0.00108447 0 0)
(0.538715 0.0103746 0 0.00124283 0 0)
(0.738568 -0.0667791 0 0.0158603 0 0)
(0.37748 -0.0285827 0 0.047014 0 0)
(0.4249 -0.0500102 0 0.0456376 0 0)
(0.467083 -0.0569672 0 0.0334626 0 0)
(0.440566 -0.0426103 0 0.0282187 0 0)
(0.391845 -0.0214642 0 0.0248736 0 0)
(0.361119 -0.00282342 0 0.0204863 0 0)
(0.35233 0.00931212 0 0.0148149 0 0)
(0.354519 0.0133309 0 0.00955553 0 0)
(0.361129 0.0132706 0 0.00573154 0 0)
(0.363495 0.0110239 0 0.00337504 0 0)
(0.365983 0.00983752 0 0.00243775 0 0)
(0.366326 0.00836794 0 0.00202934 0 0)
(0.366174 0.00632154 0 0.00172983 0 0)
(0.362059 0.00366339 0 0.00144934 0 0)
(0.354852 0.00168822 0 0.00134533 0 0)
(0.34457 0.00137907 0 0.00139997 0 0)
(0.33359 0.00235549 0 0.00154759 0 0)
(0.736718 -0.133206 0 0.0395567 0 0)
(0.366083 0.0163358 0 0.0761261 0 0)
(0.434578 0.0537433 0 0.0543944 0 0)
(0.516771 0.0743039 0 0.0328272 0 0)
(0.731975 0.0902064 0 0.0203881 0 0)
(1.05304 0.0843876 0 0.0126007 0 0)
(1.37806 0.0624801 0 0.00733694 0 0)
(1.64049 0.0376974 0 0.00383044 0 0)
(1.81297 0.0197882 0 0.00184255 0 0)
(1.92458 0.00907526 0 0.000904844 0 0)
(1.96305 0.00532335 0 0.000523154 0 0)
(1.99004 0.0039506 0 0.000469318 0 0)
(1.96913 0.00225475 0 0.000418119 0 0)
(1.94965 0.000736473 0 0.000466523 0 0)
(1.89601 -0.00241429 0 0.00043374 0 0)
(1.84051 -0.0024454 0 0.000478621 0 0)
(1.7757 0.00014335 0 0.000581454 0 0)
(1.71261 0.00322162 0 0.00068789 0 0)
(0.399878 -0.0283339 0 0.0107544 0 0)
(1.28265 0.0699753 0 0.00727794 0 0)
(2.27247 0.0432643 0 0.00171429 0 0)
(3.06191 0.0132952 0 0.00020544 0 0)
(3.75571 -0.00641538 0 8.59295e-05 0 0)
(4.20972 -0.017119 0 0.000132883 0 0)
(4.43765 -0.0175919 0 0.000109663 0 0)
(4.52417 -0.0119452 0 8.20086e-05 0 0)
(4.54489 -0.00489562 0 8.32181e-05 0 0)
(4.5424 0.00106062 0 0.000100159 0 0)
(4.53054 0.00432744 0 0.000123106 0 0)
(4.52138 0.00563339 0 0.000147673 0 0)
(4.50184 0.00569712 0 0.000162166 0 0)
(4.48441 0.00490664 0 0.00018345 0 0)
(4.45337 0.00392458 0 0.000163449 0 0)
(4.41163 0.00456111 0 0.000238067 0 0)
(4.40814 0.00753569 0 0.000198227 0 0)
(4.32773 0.00790914 0 0.00039662 0 0)
(0.00053289 -0.00106393 0 0.00212488 0 0)
(0.00404909 -0.0026849 0 0.00178208 0 0)
(0.0102927 -0.00415158 0 0.00167542 0 0)
(0.0194932 -0.00559459 0 0.00160617 0 0)
(0.0313426 -0.00692124 0 0.00152881 0 0)
(0.0457163 -0.00811128 0 0.00143956 0 0)
(0.0622994 -0.00913595 2.2864e-20 0.00134021 -3.32645e-21 3.30508e-36)
(0.0807849 -0.00997003 -2.57673e-20 0.00123101 3.15857e-21 3.25543e-36)
(0.100809 -0.0106003 0 0.00111537 0 0)
(0.12197 -0.01102 -3.10417e-20 0.0009966 2.79156e-21 3.15757e-36)
(0.143847 -0.0112295 0 0.000877882 0 0)
(0.165948 -0.0112254 0 0.000760975 0 0)
(0.187887 -0.0110173 0 0.000648158 0 0)
(0.209259 -0.0106269 3.91764e-20 0.000542398 -1.99262e-21 2.96751e-36)
(0.229652 -0.0100736 0 0.000445313 0 0)
(0.248739 -0.00938373 0 0.000358281 0 0)
(0.266218 -0.00858544 -4.30288e-20 0.000282114 1.40688e-21 2.82988e-36)
(0.281857 -0.00770981 0 0.000217207 0 0)
(0.29548 -0.00678863 0 0.000163471 0 0)
(0.306955 -0.00584963 0 0.000120256 0 0)
(0.316233 -0.00491759 4.53252e-20 8.65971e-05 -7.44086e-22 2.65288e-36)
(0.323348 -0.00401905 0 6.147e-05 0 0)
(0.328358 -0.00317819 4.54237e-20 4.36711e-05 -4.85923e-22 2.56717e-36)
(0.331324 -0.0024091 0 3.17752e-05 0 0)
(0.332394 -0.00172005 0 2.44208e-05 0 0)
(0.331786 -0.00112141 4.45514e-20 2.04527e-05 -2.00573e-22 2.44209e-36)
(0.329689 -0.000621441 0 1.88163e-05 0 0)
(0.326251 -0.000218773 -4.34572e-20 1.85523e-05 7.53887e-23 2.36104e-36)
(0.321687 9.44554e-05 0 1.89204e-05 0 0)
(0.316275 0.000322861 4.2079e-20 1.94371e-05 1.99215e-24 2.28185e-36)
(0.310206 0.000466725 0 1.97693e-05 0 0)
(0.303589 0.000532956 0 1.96632e-05 0 0)
(0.296615 0.000538144 0 1.902e-05 0 0)
(0.289525 0.00049435 0 1.7919e-05 0 0)
(0.282438 0.000403621 0 1.6491e-05 0 0)
(0.275392 0.000271978 -3.72118e-20 1.48387e-05 -3.01353e-23 2.05545e-36)
(0.268507 0.00011411 0 1.30763e-05 0 0)
(0.261943 -5.99292e-05 7.11708e-20 1.13792e-05 -9.80801e-24 7.9348e-36)
(0.255748 -0.000248958 0 9.94851e-06 0 0)
(0.249906 -0.000449079 -6.80918e-20 8.91091e-06 9.66579e-23 7.65517e-36)
(0.244469 -0.000650424 0 8.2897e-06 0 0)
(0.239526 -0.000847484 0 8.11524e-06 0 0)
(0.23508 -0.00104201 6.38986e-20 8.48151e-06 -2.45736e-22 7.24948e-36)
(0.231082 -0.0012331 0 9.42526e-06 0 0)
(0.22754 -0.00141416 6.14438e-20 1.08412e-05 -3.42948e-22 6.9881e-36)
(0.224503 -0.00158184 -6.03184e-20 1.26162e-05 3.89934e-22 6.86011e-36)
(0.22196 -0.00173961 0 1.47536e-05 0 0)
(0.219846 -0.0018897 -5.82847e-20 1.72568e-05 4.72688e-22 6.60949e-36)
(0.218141 -0.00202825 -5.7371e-20 1.99807e-05 5.10629e-22 6.48684e-36)
(0.216875 -0.00215184 0 2.27436e-05 0 0)
(0.216042 -0.0022634 0 2.55122e-05 0 0)
(0.215583 -0.00236733 0 2.83311e-05 0 0)
(0.215458 -0.00246267 0 3.11221e-05 0 0)
(0.21568 -0.00254562 0 3.37046e-05 0 0)
(0.216257 -0.00261658 5.31795e-20 3.60099e-05 -6.67946e-22 5.78742e-36)
(0.217149 -0.00267999 0 3.81188e-05 0 0)
(0.218308 -0.00273789 -5.22072e-20 4.00686e-05 6.93293e-22 5.56788e-36)
(0.219728 -0.00278781 0 4.17549e-05 0 0)
(0.221421 -0.00282778 0 4.30808e-05 0 0)
(0.223372 -0.00286013 5.10577e-20 4.40993e-05 -7.12973e-22 5.25095e-36)
(0.225539 -0.00288824 0 4.49164e-05 0 0)
(0.2279 -0.00291202 -5.0462e-20 4.55299e-05 7.13375e-22 5.04774e-36)
(0.230464 -0.00292902 0 4.58571e-05 0 0)
(0.233228 -0.00293905 0 4.5892e-05 0 0)
(0.236166 -0.00294494 0 4.5736e-05 0 0)
(0.239253 -0.00294865 4.95735e-20 4.54623e-05 -6.95595e-22 4.66014e-36)
(0.242483 -0.00294907 0 4.5042e-05 0 0)
(0.245863 -0.0029445 0 4.44298e-05 0 0)
(0.249381 -0.00293588 4.9099e-20 4.36674e-05 -6.69577e-22 4.3854e-36)
(0.253014 -0.00292576 0 4.2845e-05 0 0)
(0.256747 -0.00291496 4.8842e-20 4.19937e-05 -6.48731e-22 4.2096e-36)
(0.260583 -0.00290184 0 4.107e-05 0 0)
(0.264516 -0.00288451 0 4.00303e-05 0 0)
(0.268534 -0.00286026 0 3.88186e-05 0 0)
(0.272629 -0.00283015 -4.84147e-20 3.74785e-05 6.01031e-22 3.87502e-36)
(0.276798 -0.0027954 0 3.60512e-05 0 0)
(0.281042 -0.00275678 0 3.45615e-05 0 0)
(0.285357 -0.00271533 -4.81337e-20 3.3045e-05 5.59282e-22 3.63846e-36)
(0.289726 -0.00267316 -4.80426e-20 3.15614e-05 5.44903e-22 3.56226e-36)
(0.294139 -0.00263185 0 3.01481e-05 0 0)
(0.298598 -0.00259075 -4.78597e-20 2.87851e-05 5.16327e-22 3.41371e-36)
(0.303108 -0.00254823 0 2.74368e-05 0 0)
(0.307663 -0.00250454 -9.53405e-20 2.61136e-05 9.77945e-22 1.30808e-35)
(0.312249 -0.00246189 0 2.48634e-05 0 0)
(0.31686 -0.00242381 -9.49442e-20 2.37459e-05 9.24843e-22 1.25264e-35)
(0.321503 -0.00238944 0 2.27355e-05 0 0)
(0.326185 -0.00235618 9.45296e-20 2.17801e-05 -8.74819e-22 1.19911e-35)
(0.330905 -0.00232284 0 2.08589e-05 0 0)
(0.335651 -0.0022905 0 1.99914e-05 0 0)
(0.340413 -0.00226064 0 1.91973e-05 0 0)
(0.345197 -0.00223285 -9.3613e-20 1.84637e-05 7.86292e-22 1.09757e-35)
(0.350009 -0.00220592 0 1.77676e-05 0 0)
(0.354851 -0.0021788 9.31126e-20 1.70927e-05 -7.45049e-22 1.04946e-35)
(0.359717 -0.00215271 0 1.64594e-05 0 0)
(0.364599 -0.00212866 -9.25779e-20 1.58781e-05 7.06885e-22 1.00305e-35)
(0.369498 -0.00210589 -9.22989e-20 1.53325e-05 6.88636e-22 9.80463e-36)
(0.374423 -0.00208311 -9.20122e-20 1.48032e-05 6.71016e-22 9.58288e-36)
(0.379378 -0.00205982 0 1.42845e-05 0 0)
(0.384359 -0.00203659 0 1.37846e-05 0 0)
(0.38936 -0.00201456 0 1.33173e-05 0 0)
(0.394378 -0.00199439 0 1.28883e-05 0 0)
(0.399421 -0.0019757 0 1.24897e-05 0 0)
(0.404494 -0.00195733 0 1.21061e-05 0 0)
(0.409599 -0.00193863 0 1.17301e-05 0 0)
(0.414733 -0.00192 0 1.13669e-05 0 0)
(0.41989 -0.00190241 8.90735e-20 1.10265e-05 -5.40767e-22 7.76048e-36)
(0.425073 -0.00188627 8.871e-20 1.07116e-05 -5.28706e-22 7.57621e-36)
(0.430285 -0.00187119 0 1.04165e-05 0 0)
(0.435531 -0.00185648 0 1.01333e-05 0 0)
(0.440811 -0.00184169 0 9.85749e-06 0 0)
(0.446124 -0.00182706 8.71884e-20 9.59121e-06 -4.83504e-22 6.87296e-36)
(0.451468 -0.00181306 0 9.33859e-06 0 0)
(0.456843 -0.00179991 0 9.1005e-06 0 0)
(0.462253 -0.00178744 0 8.8749e-06 0 0)
(0.4677 -0.00177541 0 8.6594e-06 0 0)
(0.473185 -0.00176369 -8.51343e-20 8.45255e-06 4.34766e-22 6.0662e-36)
(0.478706 -0.00175226 0 8.25396e-06 0 0)
(0.484265 -0.00174121 0 8.06367e-06 0 0)
(0.489862 -0.00173044 8.38256e-20 7.88032e-06 -4.08743e-22 5.61832e-36)
(0.495499 -0.00171988 -8.33771e-20 7.70304e-06 4.00637e-22 5.47477e-36)
(0.501177 -0.00170957 0 7.53214e-06 0 0)
(0.506896 -0.00169964 -8.24625e-20 7.36865e-06 3.84951e-22 5.19601e-36)
(0.512657 -0.00169017 0 7.21313e-06 0 0)
(0.51846 -0.00168102 8.15254e-20 7.06417e-06 -3.69568e-22 4.92808e-36)
(0.524306 -0.00167198 0 6.91977e-06 0 0)
(0.530197 -0.00166294 0 6.77879e-06 0 0)
(0.536132 -0.00165397 0 6.64158e-06 0 0)
(0.542112 -0.00164526 0 6.50918e-06 0 0)
(0.548138 -0.00163688 0 6.3821e-06 0 0)
(0.554211 -0.00162874 -1.57146e-19 6.25986e-06 6.56241e-22 1.67434e-35)
(0.560333 -0.00162062 -1.56124e-19 6.14105e-06 6.43054e-22 1.62828e-35)
(0.566502 -0.00161237 0 6.02445e-06 0 0)
(0.57272 -0.00160396 0 5.90963e-06 0 0)
(0.578985 -0.00159556 0 5.79737e-06 0 0)
(0.585299 -0.00158735 1.51917e-19 5.68862e-06 -5.93943e-22 1.45323e-35)
(0.591662 -0.00157931 0 5.58327e-06 0 0)
(0.598075 -0.00157128 0 5.48065e-06 0 0)
(0.60454 -0.00156304 0 5.37956e-06 0 0)
(0.611055 -0.00155452 1.47535e-19 5.2797e-06 -5.47837e-22 1.2922e-35)
(0.617619 -0.0015459 -1.46411e-19 5.18178e-06 5.36613e-22 1.25402e-35)
(0.624232 -0.00153733 0 5.0863e-06 0 0)
(0.630896 -0.0015288 0 4.9929e-06 0 0)
(0.637611 -0.00152019 -1.42968e-19 4.9011e-06 5.04836e-22 1.1443e-35)
(0.644378 -0.00151146 -1.41797e-19 4.81095e-06 4.94287e-22 1.10928e-35)
(0.651195 -0.00150258 0 4.72245e-06 0 0)
(0.658064 -0.00149349 0 4.63541e-06 0 0)
(0.664982 -0.00148422 1.38213e-19 4.5498e-06 -4.63368e-22 1.0087e-35)
(0.67195 -0.0014748 -1.36993e-19 4.46543e-06 4.53511e-22 9.76634e-36)
(0.678968 -0.00146525 0 4.38207e-06 0 0)
(0.686037 -0.00145549 0 4.29938e-06 0 0)
(0.693157 -0.00144544 -1.3326e-19 4.21714e-06 4.24913e-22 8.84631e-36)
(0.700327 -0.00143512 0 4.13575e-06 0 0)
(0.707544 -0.00142461 0 4.05567e-06 0 0)
(0.71481 -0.0014139 -1.29415e-19 3.97708e-06 3.96556e-22 7.98702e-36)
(0.722124 -0.0014029 0 3.89942e-06 0 0)
(0.729484 -0.00139157 -1.26786e-19 3.82214e-06 3.78187e-22 7.44647e-36)
(0.73689 -0.00137993 0 3.74527e-06 0 0)
(0.744341 -0.00136783 0 3.66786e-06 0 0)
(0.751836 -0.00135515 0 3.58935e-06 0 0)
(0.759373 -0.00134184 1.21363e-19 3.50993e-06 -3.4235e-22 6.43931e-36)
(0.766948 -0.00132766 0 3.42861e-06 0 0)
(0.77456 -0.00131261 0 3.34544e-06 0 0)
(0.782205 -0.00129645 0 3.25958e-06 0 0)
(0.789877 -0.00127898 0 3.1695e-06 0 0)
(0.797571 -0.00125978 0 3.07373e-06 0 0)
(0.805282 -0.00123886 0 2.972e-06 0 0)
(0.812998 -0.00121518 1.113e-19 2.85972e-06 -2.7709e-22 4.89839e-36)
(0.82071 -0.00118815 1.09795e-19 2.7365e-06 -2.66305e-22 4.69991e-36)
(0.828415 -0.00115834 0 2.5993e-06 0 0)