# vtk DataFile Version 2.0
sampleSurface
ASCII
DATASET POLYDATA
POINTS 502 float
-0.0206 0 -0.0005
-0.0190172 0 -0.0005
-0.0190172 0 0.0005
-0.0206 0 0.0005
-0.0174976 0 -0.0005
-0.0174976 0 0.0005
-0.0160387 0 -0.0005
-0.0160387 0 0.0005
-0.0146381 0 -0.0005
-0.0146381 0 0.0005
-0.0132934 0 -0.0005
-0.0132934 0 0.0005
-0.0120025 0 -0.0005
-0.0120025 0 0.0005
-0.0107632 0 -0.0005
-0.0107632 0 0.0005
-0.00957337 0 -0.0005
-0.00957337 0 0.0005
-0.00843108 0 -0.0005
-0.00843108 0 0.0005
-0.00733443 0 -0.0005
-0.00733443 0 0.0005
-0.0062816 0 -0.0005
-0.0062816 0 0.0005
-0.00527083 0 -0.0005
-0.00527083 0 0.0005
-0.00430044 0 -0.0005
-0.00430044 0 0.0005
-0.00336883 0 -0.0005
-0.00336883 0 0.0005
-0.00247443 0 -0.0005
-0.00247443 0 0.0005
-0.00161577 0 -0.0005
-0.00161577 0 0.0005
-0.000791418 0 -0.0005
-0.000791418 0 0.0005
0 0 -0.0005
0 0 0.0005
0 -0.005 -0.0005
0 -0.005 0.0005
0 -0.00423364 0.0005
0 -0.00423364 -0.0005
0 -0.00353089 0.0005
0 -0.00353089 -0.0005
0 -0.00288647 0.0005
0 -0.00288647 -0.0005
0 -0.00229553 0.0005
0 -0.00229553 -0.0005
0 -0.00175363 0.0005
0 -0.00175363 -0.0005
0 -0.00125671 0.0005
0 -0.00125671 -0.0005
0 -0.000801036 0.0005
0 -0.000801036 -0.0005
0 -0.000383178 0.0005
0 -0.000383178 -0.0005
0 -0.0254 -0.0005
0 -0.0254 0.0005
0 -0.0242667 0.0005
0 -0.0242667 -0.0005
0 -0.0231333 0.0005
0 -0.0231333 -0.0005
0 -0.022 0.0005
0 -0.022 -0.0005
0 -0.0208667 0.0005
0 -0.0208667 -0.0005
0 -0.0197333 0.0005
0 -0.0197333 -0.0005
0 -0.0186 0.0005
0 -0.0186 -0.0005
0 -0.0174667 0.0005
0 -0.0174667 -0.0005
0 -0.0163333 0.0005
0 -0.0163333 -0.0005
0 -0.0152 0.0005
0 -0.0152 -0.0005
0 -0.0140667 0.0005
0 -0.0140667 -0.0005
0 -0.0129333 0.0005
0 -0.0129333 -0.0005
0 -0.0118 0.0005
0 -0.0118 -0.0005
0 -0.0106667 0.0005
0 -0.0106667 -0.0005
0 -0.00953333 0.0005
0 -0.00953333 -0.0005
0 -0.0084 0.0005
0 -0.0084 -0.0005
0 -0.00726667 0.0005
0 -0.00726667 -0.0005
0 -0.00613333 0.0005
0 -0.00613333 -0.0005
0.000528387 -0.0254 -0.0005
0.000528387 -0.0254 0.0005
0.00106088 -0.0254 -0.0005
0.00106088 -0.0254 0.0005
0.00159752 -0.0254 -0.0005
0.00159752 -0.0254 0.0005
0.00213833 -0.0254 -0.0005
0.00213833 -0.0254 0.0005
0.00268334 -0.0254 -0.0005
0.00268334 -0.0254 0.0005
0.00323259 -0.0254 -0.0005
0.00323259 -0.0254 0.0005
0.00378611 -0.0254 -0.0005
0.00378611 -0.0254 0.0005
0.00434393 -0.0254 -0.0005
0.00434393 -0.0254 0.0005
0.00490609 -0.0254 -0.0005
0.00490609 -0.0254 0.0005
0.00547262 -0.0254 -0.0005
0.00547262 -0.0254 0.0005
0.00604356 -0.0254 -0.0005
0.00604356 -0.0254 0.0005
0.00661893 -0.0254 -0.0005
0.00661893 -0.0254 0.0005
0.00719878 -0.0254 -0.0005
0.00719878 -0.0254 0.0005
0.00778313 -0.0254 -0.0005
0.00778313 -0.0254 0.0005
0.00837203 -0.0254 -0.0005
0.00837203 -0.0254 0.0005
0.00896551 -0.0254 -0.0005
0.00896551 -0.0254 0.0005
0.0095636 -0.0254 -0.0005
0.0095636 -0.0254 0.0005
0.0101663 -0.0254 -0.0005
0.0101663 -0.0254 0.0005
0.0107738 -0.0254 -0.0005
0.0107738 -0.0254 0.0005
0.0113859 -0.0254 -0.0005
0.0113859 -0.0254 0.0005
0.0120028 -0.0254 -0.0005
0.0120028 -0.0254 0.0005
0.0126245 -0.0254 -0.0005
0.0126245 -0.0254 0.0005
0.0132511 -0.0254 -0.0005
0.0132511 -0.0254 0.0005
0.0138825 -0.0254 -0.0005
0.0138825 -0.0254 0.0005
0.0145188 -0.0254 -0.0005
0.0145188 -0.0254 0.0005
0.0151601 -0.0254 -0.0005
0.0151601 -0.0254 0.0005
0.0158063 -0.0254 -0.0005
0.0158063 -0.0254 0.0005
0.0164576 -0.0254 -0.0005
0.0164576 -0.0254 0.0005
0.0171139 -0.0254 -0.0005
0.0171139 -0.0254 0.0005
0.0177754 -0.0254 -0.0005
0.0177754 -0.0254 0.0005
0.018442 -0.0254 -0.0005
0.018442 -0.0254 0.0005
0.0191137 -0.0254 -0.0005
0.0191137 -0.0254 0.0005
0.0197907 -0.0254 -0.0005
0.0197907 -0.0254 0.0005
0.020473 -0.0254 -0.0005
0.020473 -0.0254 0.0005
0.0211606 -0.0254 -0.0005
0.0211606 -0.0254 0.0005
0.0218535 -0.0254 -0.0005
0.0218535 -0.0254 0.0005
0.0225517 -0.0254 -0.0005
0.0225517 -0.0254 0.0005
0.0232555 -0.0254 -0.0005
0.0232555 -0.0254 0.0005
0.0239647 -0.0254 -0.0005
0.0239647 -0.0254 0.0005
0.0246794 -0.0254 -0.0005
0.0246794 -0.0254 0.0005
0.0253996 -0.0254 -0.0005
0.0253996 -0.0254 0.0005
0.0261255 -0.0254 -0.0005
0.0261255 -0.0254 0.0005
0.026857 -0.0254 -0.0005
0.026857 -0.0254 0.0005
0.0275942 -0.0254 -0.0005
0.0275942 -0.0254 0.0005
0.0283371 -0.0254 -0.0005
0.0283371 -0.0254 0.0005
0.0290858 -0.0254 -0.0005
0.0290858 -0.0254 0.0005
0.0298403 -0.0254 -0.0005
0.0298403 -0.0254 0.0005
0.0306007 -0.0254 -0.0005
0.0306007 -0.0254 0.0005
0.031367 -0.0254 -0.0005
0.031367 -0.0254 0.0005
0.0321393 -0.0254 -0.0005
0.0321393 -0.0254 0.0005
0.0329175 -0.0254 -0.0005
0.0329175 -0.0254 0.0005
0.0337019 -0.0254 -0.0005
0.0337019 -0.0254 0.0005
0.0344923 -0.0254 -0.0005
0.0344923 -0.0254 0.0005
0.0352888 -0.0254 -0.0005
0.0352888 -0.0254 0.0005
0.0360916 -0.0254 -0.0005
0.0360916 -0.0254 0.0005
0.0369006 -0.0254 -0.0005
0.0369006 -0.0254 0.0005
0.0377158 -0.0254 -0.0005
0.0377158 -0.0254 0.0005
0.0385375 -0.0254 -0.0005
0.0385375 -0.0254 0.0005
0.0393655 -0.0254 -0.0005
0.0393655 -0.0254 0.0005
0.0401999 -0.0254 -0.0005
0.0401999 -0.0254 0.0005
0.0410408 -0.0254 -0.0005
0.0410408 -0.0254 0.0005
0.0418883 -0.0254 -0.0005
0.0418883 -0.0254 0.0005
0.0427424 -0.0254 -0.0005
0.0427424 -0.0254 0.0005
0.0436031 -0.0254 -0.0005
0.0436031 -0.0254 0.0005
0.0444704 -0.0254 -0.0005
0.0444704 -0.0254 0.0005
0.0453446 -0.0254 -0.0005
0.0453446 -0.0254 0.0005
0.0462255 -0.0254 -0.0005
0.0462255 -0.0254 0.0005
0.0471133 -0.0254 -0.0005
0.0471133 -0.0254 0.0005
0.048008 -0.0254 -0.0005
0.048008 -0.0254 0.0005
0.0489096 -0.0254 -0.0005
0.0489096 -0.0254 0.0005
0.0498183 -0.0254 -0.0005
0.0498183 -0.0254 0.0005
0.050734 -0.0254 -0.0005
0.050734 -0.0254 0.0005
0.0516568 -0.0254 -0.0005
0.0516568 -0.0254 0.0005
0.0525868 -0.0254 -0.0005
0.0525868 -0.0254 0.0005
0.053524 -0.0254 -0.0005
0.053524 -0.0254 0.0005
0.0544686 -0.0254 -0.0005
0.0544686 -0.0254 0.0005
0.0554204 -0.0254 -0.0005
0.0554204 -0.0254 0.0005
0.0563797 -0.0254 -0.0005
0.0563797 -0.0254 0.0005
0.0573464 -0.0254 -0.0005
0.0573464 -0.0254 0.0005
0.0583206 -0.0254 -0.0005
0.0583206 -0.0254 0.0005
0.0593025 -0.0254 -0.0005
0.0593025 -0.0254 0.0005
0.0602919 -0.0254 -0.0005
0.0602919 -0.0254 0.0005
0.0612891 -0.0254 -0.0005
0.0612891 -0.0254 0.0005
0.0622939 -0.0254 -0.0005
0.0622939 -0.0254 0.0005
0.0633067 -0.0254 -0.0005
0.0633067 -0.0254 0.0005
0.0643272 -0.0254 -0.0005
0.0643272 -0.0254 0.0005
0.0653557 -0.0254 -0.0005
0.0653557 -0.0254 0.0005
0.0663923 -0.0254 -0.0005
0.0663923 -0.0254 0.0005
0.0674368 -0.0254 -0.0005
0.0674368 -0.0254 0.0005
0.0684895 -0.0254 -0.0005
0.0684895 -0.0254 0.0005
0.0695504 -0.0254 -0.0005
0.0695504 -0.0254 0.0005
0.0706195 -0.0254 -0.0005
0.0706195 -0.0254 0.0005
0.0716969 -0.0254 -0.0005
0.0716969 -0.0254 0.0005
0.0727828 -0.0254 -0.0005
0.0727828 -0.0254 0.0005
0.073877 -0.0254 -0.0005
0.073877 -0.0254 0.0005
0.0749798 -0.0254 -0.0005
0.0749798 -0.0254 0.0005
0.0760911 -0.0254 -0.0005
0.0760911 -0.0254 0.0005
0.0772111 -0.0254 -0.0005
0.0772111 -0.0254 0.0005
0.0783398 -0.0254 -0.0005
0.0783398 -0.0254 0.0005
0.0794772 -0.0254 -0.0005
0.0794772 -0.0254 0.0005
0.0806235 -0.0254 -0.0005
0.0806235 -0.0254 0.0005
0.0817787 -0.0254 -0.0005
0.0817787 -0.0254 0.0005
0.0829429 -0.0254 -0.0005
0.0829429 -0.0254 0.0005
0.0841162 -0.0254 -0.0005
0.0841162 -0.0254 0.0005
0.0852985 -0.0254 -0.0005
0.0852985 -0.0254 0.0005
0.0864901 -0.0254 -0.0005
0.0864901 -0.0254 0.0005
0.0876909 -0.0254 -0.0005
0.0876909 -0.0254 0.0005
0.0889011 -0.0254 -0.0005
0.0889011 -0.0254 0.0005
0.0901207 -0.0254 -0.0005
0.0901207 -0.0254 0.0005
0.0913497 -0.0254 -0.0005
0.0913497 -0.0254 0.0005
0.0925883 -0.0254 -0.0005
0.0925883 -0.0254 0.0005
0.0938366 -0.0254 -0.0005
0.0938366 -0.0254 0.0005
0.0950945 -0.0254 -0.0005
0.0950945 -0.0254 0.0005
0.0963622 -0.0254 -0.0005
0.0963622 -0.0254 0.0005
0.0976398 -0.0254 -0.0005
0.0976398 -0.0254 0.0005
0.0989273 -0.0254 -0.0005
0.0989273 -0.0254 0.0005
0.100225 -0.0254 -0.0005
0.100225 -0.0254 0.0005
0.101532 -0.0254 -0.0005
0.101532 -0.0254 0.0005
0.10285 -0.0254 -0.0005
0.10285 -0.0254 0.0005
0.104178 -0.0254 -0.0005
0.104178 -0.0254 0.0005
0.105517 -0.0254 -0.0005
0.105517 -0.0254 0.0005
0.106865 -0.0254 -0.0005
0.106865 -0.0254 0.0005
0.108225 -0.0254 -0.0005
0.108225 -0.0254 0.0005
0.109594 -0.0254 -0.0005
0.109594 -0.0254 0.0005
0.110975 -0.0254 -0.0005
0.110975 -0.0254 0.0005
0.112366 -0.0254 -0.0005
0.112366 -0.0254 0.0005
0.113768 -0.0254 -0.0005
0.113768 -0.0254 0.0005
0.115181 -0.0254 -0.0005
0.115181 -0.0254 0.0005
0.116605 -0.0254 -0.0005
0.116605 -0.0254 0.0005
0.11804 -0.0254 -0.0005
0.11804 -0.0254 0.0005
0.119486 -0.0254 -0.0005
0.119486 -0.0254 0.0005
0.120943 -0.0254 -0.0005
0.120943 -0.0254 0.0005
0.122412 -0.0254 -0.0005
0.122412 -0.0254 0.0005
0.123892 -0.0254 -0.0005
0.123892 -0.0254 0.0005
0.125384 -0.0254 -0.0005
0.125384 -0.0254 0.0005
0.126887 -0.0254 -0.0005
0.126887 -0.0254 0.0005
0.128402 -0.0254 -0.0005
0.128402 -0.0254 0.0005
0.129928 -0.0254 -0.0005
0.129928 -0.0254 0.0005
0.131467 -0.0254 -0.0005
0.131467 -0.0254 0.0005
0.133017 -0.0254 -0.0005
0.133017 -0.0254 0.0005
0.13458 -0.0254 -0.0005
0.13458 -0.0254 0.0005
0.136155 -0.0254 -0.0005
0.136155 -0.0254 0.0005
0.137742 -0.0254 -0.0005
0.137742 -0.0254 0.0005
0.139341 -0.0254 -0.0005
0.139341 -0.0254 0.0005
0.140953 -0.0254 -0.0005
0.140953 -0.0254 0.0005
0.142577 -0.0254 -0.0005
0.142577 -0.0254 0.0005
0.144214 -0.0254 -0.0005
0.144214 -0.0254 0.0005
0.145863 -0.0254 -0.0005
0.145863 -0.0254 0.0005
0.147526 -0.0254 -0.0005
0.147526 -0.0254 0.0005
0.149201 -0.0254 -0.0005
0.149201 -0.0254 0.0005
0.15089 -0.0254 -0.0005
0.15089 -0.0254 0.0005
0.152591 -0.0254 -0.0005
0.152591 -0.0254 0.0005
0.154306 -0.0254 -0.0005
0.154306 -0.0254 0.0005
0.156034 -0.0254 -0.0005
0.156034 -0.0254 0.0005
0.157775 -0.0254 -0.0005
0.157775 -0.0254 0.0005
0.159531 -0.0254 -0.0005
0.159531 -0.0254 0.0005
0.161299 -0.0254 -0.0005
0.161299 -0.0254 0.0005
0.163082 -0.0254 -0.0005
0.163082 -0.0254 0.0005
0.164878 -0.0254 -0.0005
0.164878 -0.0254 0.0005
0.166688 -0.0254 -0.0005
0.166688 -0.0254 0.0005
0.168513 -0.0254 -0.0005
0.168513 -0.0254 0.0005
0.170351 -0.0254 -0.0005
0.170351 -0.0254 0.0005
0.172204 -0.0254 -0.0005
0.172204 -0.0254 0.0005
0.174071 -0.0254 -0.0005
0.174071 -0.0254 0.0005
0.175953 -0.0254 -0.0005
0.175953 -0.0254 0.0005
0.177849 -0.0254 -0.0005
0.177849 -0.0254 0.0005
0.17976 -0.0254 -0.0005
0.17976 -0.0254 0.0005
0.181686 -0.0254 -0.0005
0.181686 -0.0254 0.0005
0.183627 -0.0254 -0.0005
0.183627 -0.0254 0.0005
0.185583 -0.0254 -0.0005
0.185583 -0.0254 0.0005
0.187555 -0.0254 -0.0005
0.187555 -0.0254 0.0005
0.189541 -0.0254 -0.0005
0.189541 -0.0254 0.0005
0.191543 -0.0254 -0.0005
0.191543 -0.0254 0.0005
0.193561 -0.0254 -0.0005
0.193561 -0.0254 0.0005
0.195594 -0.0254 -0.0005
0.195594 -0.0254 0.0005
0.197643 -0.0254 -0.0005
0.197643 -0.0254 0.0005
0.199708 -0.0254 -0.0005
0.199708 -0.0254 0.0005
0.201789 -0.0254 -0.0005
0.201789 -0.0254 0.0005
0.203886 -0.0254 -0.0005
0.203886 -0.0254 0.0005
0.206 -0.0254 -0.0005
0.206 -0.0254 0.0005
0.208047 -0.0251856 -0.0005
0.208047 -0.0251856 0.0005
0.210173 -0.0249628 -0.0005
0.210173 -0.0249628 0.0005
0.212382 -0.0247314 -0.0005
0.212382 -0.0247314 0.0005
0.214677 -0.024491 -0.0005
0.214677 -0.024491 0.0005
0.217061 -0.0242412 -0.0005
0.217061 -0.0242412 0.0005
0.219538 -0.0239817 -0.0005
0.219538 -0.0239817 0.0005
0.222112 -0.0237121 -0.0005
0.222112 -0.0237121 0.0005
0.224785 -0.023432 -0.0005
0.224785 -0.023432 0.0005
0.227563 -0.023141 -0.0005
0.227563 -0.023141 0.0005
0.230449 -0.0228387 -0.0005
0.230449 -0.0228387 0.0005
0.233447 -0.0225246 -0.0005
0.233447 -0.0225246 0.0005
0.236562 -0.0221983 -0.0005
0.236562 -0.0221983 0.0005
0.239797 -0.0218593 -0.0005
0.239797 -0.0218593 0.0005
0.243159 -0.0215071 -0.0005
0.243159 -0.0215071 0.0005
0.246652 -0.0211412 -0.0005
0.246652 -0.0211412 0.0005
0.250281 -0.0207611 -0.0005
0.250281 -0.0207611 0.0005
0.254051 -0.0203661 -0.0005
0.254051 -0.0203661 0.0005
0.257967 -0.0199558 -0.0005
0.257967 -0.0199558 0.0005
0.262036 -0.0195295 -0.0005
0.262036 -0.0195295 0.0005
0.266264 -0.0190867 -0.0005
0.266264 -0.0190867 0.0005
0.270655 -0.0186266 -0.0005
0.270655 -0.0186266 0.0005
0.275218 -0.0181486 -0.0005
0.275218 -0.0181486 0.0005
0.279959 -0.017652 -0.0005
0.279959 -0.017652 0.0005
0.284883 -0.017136 -0.0005
0.284883 -0.017136 0.0005
0.29 -0.0166 -0.0005
0.29 -0.0166 0.0005

POLYGONS 250 1250
4 0 1 2 3
4 1 4 5 2
4 4 6 7 5
4 6 8 9 7
4 8 10 11 9
4 10 12 13 11
4 12 14 15 13
4 14 16 17 15
4 16 18 19 17
4 18 20 21 19
4 20 22 23 21
4 22 24 25 23
4 24 26 27 25
4 26 28 29 27
4 28 30 31 29
4 30 32 33 31
4 32 34 35 33
4 34 36 37 35
4 38 39 40 41
4 41 40 42 43
4 43 42 44 45
4 45 44 46 47
4 47 46 48 49
4 49 48 50 51
4 51 50 52 53
4 53 52 54 55
4 55 54 37 36
4 56 57 58 59
4 59 58 60 61
4 61 60 62 63
4 63 62 64 65
4 65 64 66 67
4 67 66 68 69
4 69 68 70 71
4 71 70 72 73
4 73 72 74 75
4 75 74 76 77
4 77 76 78 79
4 79 78 80 81
4 81 80 82 83
4 83 82 84 85
4 85 84 86 87
4 87 86 88 89
4 89 88 90 91
4 91 90 39 38
4 56 92 93 57
4 92 94 95 93
4 94 96 97 95
4 96 98 99 97
4 98 100 101 99
4 100 102 103 101
4 102 104 105 103
4 104 106 107 105
4 106 108 109 107
4 108 110 111 109
4 110 112 113 111
4 112 114 115 113
4 114 116 117 115
4 116 118 119 117
4 118 120 121 119
4 120 122 123 121
4 122 124 125 123
4 124 126 127 125
4 126 128 129 127
4 128 130 131 129
4 130 132 133 131
4 132 134 135 133
4 134 136 137 135
4 136 138 139 137
4 138 140 141 139
4 140 142 143 141
4 142 144 145 143
4 144 146 147 145
4 146 148 149 147
4 148 150 151 149
4 150 152 153 151
4 152 154 155 153
4 154 156 157 155
4 156 158 159 157
4 158 160 161 159
4 160 162 163 161
4 162 164 165 163
4 164 166 167 165
4 166 168 169 167
4 168 170 171 169
4 170 172 173 171
4 172 174 175 173
4 174 176 177 175
4 176 178 179 177
4 178 180 181 179
4 180 182 183 181
4 182 184 185 183
4 184 186 187 185
4 186 188 189 187
4 188 190 191 189
4 190 192 193 191
4 192 194 195 193
4 194 196 197 195
4 196 198 199 197
4 198 200 201 199
4 200 202 203 201
4 202 204 205 203
4 204 206 207 205
4 206 208 209 207
4 208 210 211 209
4 210 212 213 211
4 212 214 215 213
4 214 216 217 215
4 216 218 219 217
4 218 220 221 219
4 220 222 223 221
4 222 224 225 223
4 224 226 227 225
4 226 228 229 227
4 228 230 231 229
4 230 232 233 231
4 232 234 235 233
4 234 236 237 235
4 236 238 239 237
4 238 240 241 239
4 240 242 243 241
4 242 244 245 243
4 244 246 247 245
4 246 248 249 247
4 248 250 251 249
4 250 252 253 251
4 252 254 255 253
4 254 256 257 255
4 256 258 259 257
4 258 260 261 259
4 260 262 263 261
4 262 264 265 263
4 264 266 267 265
4 266 268 269 267
4 268 270 271 269
4 270 272 273 271
4 272 274 275 273
4 274 276 277 275
4 276 278 279 277
4 278 280 281 279
4 280 282 283 281
4 282 284 285 283
4 284 286 287 285
4 286 288 289 287
4 288 290 291 289
4 290 292 293 291
4 292 294 295 293
4 294 296 297 295
4 296 298 299 297
4 298 300 301 299
4 300 302 303 301
4 302 304 305 303
4 304 306 307 305
4 306 308 309 307
4 308 310 311 309
4 310 312 313 311
4 312 314 315 313
4 314 316 317 315
4 316 318 319 317
4 318 320 321 319
4 320 322 323 321
4 322 324 325 323
4 324 326 327 325
4 326 328 329 327
4 328 330 331 329
4 330 332 333 331
4 332 334 335 333
4 334 336 337 335
4 336 338 339 337
4 338 340 341 339
4 340 342 343 341
4 342 344 345 343
4 344 346 347 345
4 346 348 349 347
4 348 350 351 349
4 350 352 353 351
4 352 354 355 353
4 354 356 357 355
4 356 358 359 357
4 358 360 361 359
4 360 362 363 361
4 362 364 365 363
4 364 366 367 365
4 366 368 369 367
4 368 370 371 369
4 370 372 373 371
4 372 374 375 373
4 374 376 377 375
4 376 378 379 377
4 378 380 381 379
4 380 382 383 381
4 382 384 385 383
4 384 386 387 385
4 386 388 389 387
4 388 390 391 389
4 390 392 393 391
4 392 394 395 393
4 394 396 397 395
4 396 398 399 397
4 398 400 401 399
4 400 402 403 401
4 402 404 405 403
4 404 406 407 405
4 406 408 409 407
4 408 410 411 409
4 410 412 413 411
4 412 414 415 413
4 414 416 417 415
4 416 418 419 417
4 418 420 421 419
4 420 422 423 421
4 422 424 425 423
4 424 426 427 425
4 426 428 429 427
4 428 430 431 429
4 430 432 433 431
4 432 434 435 433
4 434 436 437 435
4 436 438 439 437
4 438 440 441 439
4 440 442 443 441
4 442 444 445 443
4 444 446 447 445
4 446 448 449 447
4 448 450 451 449
4 450 452 453 451
4 452 454 455 453
4 454 456 457 455
4 456 458 459 457
4 458 460 461 459
4 460 462 463 461
4 462 464 465 463
4 464 466 467 465
4 466 468 469 467
4 468 470 471 469
4 470 472 473 471
4 472 474 475 473
4 474 476 477 475
4 476 478 479 477
4 478 480 481 479
4 480 482 483 481
4 482 484 485 483
4 484 486 487 485
4 486 488 489 487
4 488 490 491 489
4 490 492 493 491
4 492 494 495 493
4 494 496 497 495
4 496 498 499 497
4 498 500 501 499
POINT_DATA 502
FIELD attributes 1
U 3 502 float
3.2605 -0.0223768 -0.0132519
1.62109 -0.0104451 -0.00653055
1.62109 -0.0104451 -0.00653055
3.2605 -0.0223768 -0.0132519
0.0238605 0.000648479 0
0.0238605 0.000648479 0
0.0175955 4.42783e-05 0
0.0175955 4.42783e-05 0
0.0146795 -7.2771e-05 0
0.0146795 -7.2771e-05 0
0.0133067 -6.23734e-05 0
0.0133067 -6.23734e-05 0
0.0125884 -4.38922e-05 0
0.0125884 -4.38922e-05 0
0.0121774 -2.83346e-05 0
0.0121774 -2.83346e-05 0
0.011863 -1.22153e-05 0
0.011863 -1.22153e-05 0
0.0116151 -1.05269e-05 0
0.0116151 -1.05269e-05 0
0.0114228 -1.57233e-05 0
0.0114228 -1.57233e-05 0
0.0113661 -2.68308e-05 0
0.0113661 -2.68308e-05 0
0.0113469 -3.04049e-05 0
0.0113469 -3.04049e-05 0
0.0114048 -2.64693e-05 0
0.0114048 -2.64693e-05 0
0.0113384 -1.81774e-05 0
0.0113384 -1.81774e-05 0
0.0113654 -3.62659e-06 0
0.0113654 -3.62659e-06 0
0.01139 -7.62269e-06 0
0.01139 -7.62269e-06 0
0.0114972 -0.00016281 0
0.0114972 -0.00016281 0
0.00560463 0.00084738 0
0.00560463 0.00084738 0
6.97628e-05 -0.00511772 0
6.97628e-05 -0.00511772 0
0.000991204 -0.00617401 0
0.000991204 -0.00617401 0
0.00110496 -0.00802755 0
0.00110496 -0.00802755 0
0.00029161 -0.00870724 5.81065e-22
0.00029161 -0.00870724 5.81065e-22
-0.000403466 -0.00784669 -6.45086e-23
-0.000403466 -0.00784669 -6.45086e-23
-0.00109818 -0.00608152 8.36787e-23
-0.00109818 -0.00608152 8.36787e-23
-0.00182364 -0.00352046 -7.47835e-23
-0.00182364 -0.00352046 -7.47835e-23
-0.00181897 -0.000584626 -7.55436e-22
-0.00181897 -0.000584626 -7.55436e-22
-0.000547878 0.00138862 0
-0.000547878 0.00138862 0
-9.41876e-05 0.000215972 0
-9.41876e-05 0.000215972 0
-0.000141301 0.000812782 0
-0.000141301 0.000812782 0
-0.00017805 0.00189713 0
-0.00017805 0.00189713 0
-0.000144809 0.00277858 0
-0.000144809 0.00277858 0
-0.000116308 0.00369723 1.42674e-22
-0.000116308 0.00369723 1.42674e-22
-5.47331e-05 0.00438578 4.78414e-26
-5.47331e-05 0.00438578 4.78414e-26
-2.41869e-05 0.00504192 -1.42626e-22
-2.41869e-05 0.00504192 -1.42626e-22
4.04432e-05 0.00563706 -2.8352e-22
4.04432e-05 0.00563706 -2.8352e-22
9.37919e-05 0.00584153 -1.18724e-25
9.37919e-05 0.00584153 -1.18724e-25
9.49283e-05 0.00608528 2.83401e-22
9.49283e-05 0.00608528 2.83401e-22
0.000182514 0.00610687 0
0.000182514 0.00610687 0
0.000240774 0.00572906 0
0.000240774 0.00572906 0
0.000274789 0.0051218 0
0.000274789 0.0051218 0
0.000346859 0.00420064 0
0.000346859 0.00420064 0
0.000438978 0.0027636 0
0.000438978 0.0027636 0
0.00049439 0.000771969 0
0.00049439 0.000771969 0
0.00030827 -0.00173734 0
0.00030827 -0.00173734 0
-0.000149562 -0.00402581 0
-0.000149562 -0.00402581 0
-0.000204795 0.000223496 0
-0.000204795 0.000223496 0
-0.000427068 0.000229826 0
-0.000427068 0.000229826 0
-0.000651797 0.000227538 0
-0.000651797 0.000227538 0
-0.000878641 0.000225404 0
-0.000878641 0.000225404 0
-0.00110722 0.000223383 0
-0.00110722 0.000223383 0
-0.00133769 0.000221896 1.59734e-23
-0.00133769 0.000221896 1.59734e-23
-0.00157035 0.000221357 1.59725e-25
-0.00157035 0.000221357 1.59725e-25
-0.00180581 0.000221894 -1.58719e-23
-0.00180581 0.000221894 -1.58719e-23
-0.00204419 0.000223465 -1.55767e-23
-0.00204419 0.000223465 -1.55767e-23
-0.00228589 0.000225862 -1.5606e-23
-0.00228589 0.000225862 -1.5606e-23
-0.00253129 0.000228861 0
-0.00253129 0.000228861 0
-0.00278039 0.000232145 0
-0.00278039 0.000232145 0
-0.00303263 0.000235283 1.50329e-23
-0.00303263 0.000235283 1.50329e-23
-0.0032874 0.00023789 1.50626e-23
-0.0032874 0.00023789 1.50626e-23
-0.00354367 0.000239623 0
-0.00354367 0.000239623 0
-0.0038 0.000240073 -1.46274e-23
-0.0038 0.000240073 -1.46274e-23
-0.00405472 0.000238836 -1.46573e-23
-0.00405472 0.000238836 -1.46573e-23
-0.00430577 0.000235503 0
-0.00430577 0.000235503 0
-0.00455041 0.000229717 0
-0.00455041 0.000229717 0
-0.00478578 0.000221328 1.41249e-23
-0.00478578 0.000221328 1.41249e-23
-0.00500886 0.000210134 1.41551e-23
-0.00500886 0.000210134 1.41551e-23
-0.00521635 0.000195836 1.39082e-23
-0.00521635 0.000195836 1.39082e-23
-0.00540473 0.000178498 1.39386e-23
-0.00540473 0.000178498 1.39386e-23
-0.00557045 0.000158151 0
-0.00557045 0.000158151 0
-0.00570993 0.000134804 1.36515e-23
-0.00570993 0.000134804 1.36515e-23
-0.00581969 0.000108712 1.36823e-23
-0.00581969 0.000108712 1.36823e-23
-0.00589651 8.02031e-05 -1.35374e-23
-0.00589651 8.02031e-05 -1.35374e-23
-0.0059374 4.96883e-05 -1.35687e-23
-0.0059374 4.96883e-05 -1.35687e-23
-0.0059397 1.78637e-05 1.3474e-23
-0.0059397 1.78637e-05 1.3474e-23
-0.0059011 -1.4564e-05 1.35058e-23
-0.0059011 -1.4564e-05 1.35058e-23
-0.00582065 -4.71271e-05 0
-0.00582065 -4.71271e-05 0
-0.00569855 -7.90707e-05 0
-0.00569855 -7.90707e-05 0
-0.00553565 -0.000109643 0
-0.00553565 -0.000109643 0
-0.00533365 -0.00013818 0
-0.00533365 -0.00013818 0
-0.00509499 -0.000164081 -1.35429e-23
-0.00509499 -0.000164081 -1.35429e-23
-0.00482277 -0.000186846 -1.3577e-23
-0.00482277 -0.000186846 -1.3577e-23
-0.00452049 -0.000206093 2.72206e-23
-0.00452049 -0.000206093 2.72206e-23
-0.00419196 -0.000221696 2.72905e-23
-0.00419196 -0.000221696 2.72905e-23
-0.0038417 -0.000233646 -2.73481e-23
-0.0038417 -0.000233646 -2.73481e-23
-0.00347428 -0.000241729 -2.74198e-23
-0.00347428 -0.000241729 -2.74198e-23
-0.00309351 -0.000246028 0
-0.00309351 -0.000246028 0
-0.00270342 -0.000247043 2.74704e-23
-0.00270342 -0.000247043 2.74704e-23
-0.00230833 -0.000244881 2.75447e-23
-0.00230833 -0.000244881 2.75447e-23
-0.00191188 -0.000239706 2.74819e-23
-0.00191188 -0.000239706 2.74819e-23
-0.00151717 -0.000232276 9.41756e-26
-0.00151717 -0.000232276 9.41756e-26
-0.00112755 -0.000222698 -2.75401e-23
-0.00112755 -0.000222698 -2.75401e-23
-0.000746291 -0.00021134 -2.73776e-23
-0.000746291 -0.00021134 -2.73776e-23
-0.000375307 -0.000198974 -5.47658e-23
-0.000375307 -0.000198974 -5.47658e-23
-1.66924e-05 -0.000185885 -2.73887e-23
-1.66924e-05 -0.000185885 -2.73887e-23
0.000327461 -0.00017188 0
0.000327461 -0.00017188 0
0.000657214 -0.000157044 0
0.000657214 -0.000157044 0
0.000971864 -0.000142046 0
0.000971864 -0.000142046 0
0.00126986 -0.000127061 0
0.00126986 -0.000127061 0
0.00155064 -0.000112264 2.65976e-23
0.00155064 -0.000112264 2.65976e-23
0.00181384 -9.78196e-05 2.66785e-23
0.00181384 -9.78196e-05 2.66785e-23
0.00205931 -8.38726e-05 -2.62733e-23
0.00205931 -8.38726e-05 -2.62733e-23
0.00228707 -7.05356e-05 -2.63547e-23
0.00228707 -7.05356e-05 -2.63547e-23
0.00249728 -5.78993e-05 0
0.00249728 -5.78993e-05 0
0.00269023 -4.60462e-05 2.57288e-23
0.00269023 -4.60462e-05 2.57288e-23
0.00286638 -3.50506e-05 2.58107e-23
0.00286638 -3.50506e-05 2.58107e-23
0.00302627 -2.49602e-05 -2.53372e-23
0.00302627 -2.49602e-05 -2.53372e-23
0.00317055 -1.57941e-05 -2.54194e-23
0.00317055 -1.57941e-05 -2.54194e-23
0.00329992 -7.55331e-06 0
0.00329992 -7.55331e-06 0
0.00341517 -2.37921e-07 0
0.00341517 -2.37921e-07 0
0.00351713 6.16285e-06 2.45116e-23
0.00351713 6.16285e-06 2.45116e-23
0.00360666 1.16881e-05 2.4594e-23
0.00360666 1.16881e-05 2.4594e-23
0.00368463 1.63848e-05 0
0.00368463 1.63848e-05 0
0.00375191 2.03098e-05 2.38725e-23
0.00375191 2.03098e-05 2.38725e-23
0.00380937 2.35099e-05 2.39548e-23
0.00380937 2.35099e-05 2.39548e-23
0.00385789 2.60388e-05 2.34431e-23
0.00385789 2.60388e-05 2.34431e-23
0.00389825 2.79894e-05 2.35253e-23
0.00389825 2.79894e-05 2.35253e-23
0.00393126 2.94004e-05 0
0.00393126 2.94004e-05 0
0.00395767 3.03242e-05 0
0.00395767 3.03242e-05 0
0.00397817 3.09035e-05 -2.25864e-23
0.00397817 3.09035e-05 -2.25864e-23
0.00399341 3.11469e-05 -2.26684e-23
0.00399341 3.11469e-05 -2.26684e-23
0.00400405 3.09529e-05 0
0.00400405 3.09529e-05 0
0.0040107 3.04018e-05 -2.19518e-23
0.0040107 3.04018e-05 -2.19518e-23
0.00401386 2.96851e-05 -4.3776e-23
0.00401386 2.96851e-05 -4.3776e-23
0.00401399 2.88913e-05 -2.1824e-23
0.00401399 2.88913e-05 -2.1824e-23
0.00401148 2.80288e-05 -2.13277e-23
0.00401148 2.80288e-05 -2.13277e-23
0.00400668 2.71104e-05 -2.1409e-23
0.00400668 2.71104e-05 -2.1409e-23
0.0039999 2.61531e-05 -4.18367e-23
0.0039999 2.61531e-05 -4.18367e-23
0.00399142 2.51679e-05 -4.19986e-23
0.00399142 2.51679e-05 -4.19986e-23
0.00398149 2.41803e-05 -4.10295e-23
0.00398149 2.41803e-05 -4.10295e-23
0.00397033 2.31967e-05 -4.11907e-23
0.00397033 2.31967e-05 -4.11907e-23
0.00395813 2.22026e-05 4.02341e-23
0.00395813 2.22026e-05 4.02341e-23
0.00394506 2.12429e-05 4.03946e-23
0.00394506 2.12429e-05 4.03946e-23
0.00393122 2.03857e-05 0
0.00393122 2.03857e-05 0
0.00391673 1.96004e-05 0
0.00391673 1.96004e-05 0
0.00390172 1.88296e-05 -3.8679e-23
0.00390172 1.88296e-05 -3.8679e-23
0.00388632 1.80703e-05 -3.88379e-23
0.00388632 1.80703e-05 -3.88379e-23
0.00387062 1.73291e-05 3.79193e-23
0.00387062 1.73291e-05 3.79193e-23
0.00385469 1.66157e-05 3.80774e-23
0.00385469 1.66157e-05 3.80774e-23
0.00383861 1.5938e-05 -3.71713e-23
0.00383861 1.5938e-05 -3.71713e-23
0.00382243 1.52884e-05 -7.41302e-23
0.00382243 1.52884e-05 -7.41302e-23
0.00380618 1.46592e-05 -7.33932e-23
0.00380618 1.46592e-05 -7.33932e-23
0.00378992 1.40554e-05 -3.6591e-23
0.00378992 1.40554e-05 -3.6591e-23
0.00377368 1.34791e-05 0
0.00377368 1.34791e-05 0
0.00375749 1.29253e-05 0
0.00375749 1.29253e-05 0
0.00374135 1.23935e-05 0
0.00374135 1.23935e-05 0
0.0037253 1.18876e-05 0
0.0037253 1.18876e-05 0
0.00370935 1.14085e-05 0
0.00370935 1.14085e-05 0
0.00369353 1.09562e-05 0
0.00369353 1.09562e-05 0
0.00367783 1.05294e-05 0
0.00367783 1.05294e-05 0
0.00366228 1.01243e-05 3.32548e-23
0.00366228 1.01243e-05 3.32548e-23
0.00364687 9.73677e-06 6.63206e-23
0.00364687 9.73677e-06 6.63206e-23
0.00363161 9.36648e-06 3.30652e-23
0.00363161 9.36648e-06 3.30652e-23
0.00361652 9.01574e-06 0
0.00361652 9.01574e-06 0
0.00360158 8.68453e-06 0
0.00360158 8.68453e-06 0
0.00358679 8.36934e-06 3.15764e-23
0.00358679 8.36934e-06 3.15764e-23
0.00357217 8.06606e-06 3.17248e-23
0.00357217 8.06606e-06 3.17248e-23
0.0035577 7.77304e-06 0
0.0035577 7.77304e-06 0
0.00354339 7.49209e-06 0
0.00354339 7.49209e-06 0
0.00352925 7.22575e-06 0
0.00352925 7.22575e-06 0
0.00351527 6.9736e-06 -2.99553e-23
0.00351527 6.9736e-06 -2.99553e-23
0.00350144 6.73216e-06 -3.01003e-23
0.00350144 6.73216e-06 -3.01003e-23
0.00348776 6.49812e-06 0
0.00348776 6.49812e-06 0
0.00347424 6.27094e-06 2.90085e-23
0.00347424 6.27094e-06 2.90085e-23
0.00346087 6.0524e-06 4.54403e-25
0.00346087 6.0524e-06 4.54403e-25
0.00344765 5.84408e-06 -2.88391e-23
0.00344765 5.84408e-06 -2.88391e-23
0.00343459 5.64552e-06 -2.808e-23
0.00343459 5.64552e-06 -2.808e-23
0.00342167 5.45463e-06 -2.82207e-23
0.00342167 5.45463e-06 -2.82207e-23
0.00340889 5.26953e-06 2.74708e-23
0.00340889 5.26953e-06 2.74708e-23
0.00339626 5.08967e-06 2.761e-23
0.00339626 5.08967e-06 2.761e-23
0.00338377 4.91545e-06 0
0.00338377 4.91545e-06 0
0.00337142 4.74713e-06 0
0.00337142 4.74713e-06 0
0.00335922 4.5848e-06 0
0.00335922 4.5848e-06 0
0.00334715 4.42865e-06 0
0.00334715 4.42865e-06 0
0.00333521 4.27871e-06 -5.1376e-23
0.00333521 4.27871e-06 -5.1376e-23
0.0033234 4.13436e-06 -1.02439e-22
0.0033234 4.13436e-06 -1.02439e-22
0.00331172 3.99438e-06 -5.1061e-23
0.00331172 3.99438e-06 -5.1061e-23
0.00330017 3.85747e-06 0
0.00330017 3.85747e-06 0
0.00328874 3.72318e-06 0
0.00328874 3.72318e-06 0
0.00327744 3.59236e-06 4.85008e-23
0.00327744 3.59236e-06 4.85008e-23
0.00326627 3.46649e-06 4.87606e-23
0.00326627 3.46649e-06 4.87606e-23
0.00325522 3.34624e-06 0
0.00325522 3.34624e-06 0
0.00324428 3.23073e-06 0
0.00324428 3.23073e-06 0
0.00323346 3.11799e-06 4.6259e-23
0.00323346 3.11799e-06 4.6259e-23
0.00322275 3.00639e-06 8.05293e-25
0.00322275 3.00639e-06 8.05293e-25
0.00321216 2.89605e-06 -4.59569e-23
0.00321216 2.89605e-06 -4.59569e-23
0.00320169 2.78883e-06 0
0.00320169 2.78883e-06 0
0.00319133 2.68676e-06 -4.40658e-23
0.00319133 2.68676e-06 -4.40658e-23
0.00318109 2.5901e-06 -8.78356e-23
0.00318109 2.5901e-06 -8.78356e-23
0.00317095 2.49713e-06 -4.37678e-23
0.00317095 2.49713e-06 -4.37678e-23
0.00316091 2.40576e-06 0
0.00316091 2.40576e-06 0
0.00315097 2.31519e-06 4.19184e-23
0.00315097 2.31519e-06 4.19184e-23
0.00314114 2.22634e-06 7.67109e-25
0.00314114 2.22634e-06 7.67109e-25
0.00313141 2.14106e-06 -4.16235e-23
0.00313141 2.14106e-06 -4.16235e-23
0.00312178 2.06084e-06 0
0.00312178 2.06084e-06 0
0.00311225 1.98581e-06 -3.9814e-23
0.00311225 1.98581e-06 -3.9814e-23
0.00310279 1.91458e-06 -4.00429e-23
0.00310279 1.91458e-06 -4.00429e-23
0.00309342 1.84588e-06 0
0.00309342 1.84588e-06 0
0.00308411 1.77904e-06 -3.82623e-23
0.00308411 1.77904e-06 -3.82623e-23
0.00307487 1.71645e-06 -3.84849e-23
0.00307487 1.71645e-06 -3.84849e-23
0.00306568 1.65707e-06 -3.72398e-23
0.00306568 1.65707e-06 -3.72398e-23
0.00305653 1.60719e-06 -3.74582e-23
0.00305653 1.60719e-06 -3.74582e-23
0.00304742 1.55775e-06 0
0.00304742 1.55775e-06 0
0.00303825 1.52928e-06 0
0.00303825 1.52928e-06 0
0.00302915 1.48278e-06 3.52227e-23
0.00302915 1.48278e-06 3.52227e-23
0.00301978 1.49773e-06 3.54323e-23
0.00301978 1.49773e-06 3.54323e-23
0.00301066 1.42504e-06 0
0.00301066 1.42504e-06 0
0.0030007 1.54782e-06 0
0.0030007 1.54782e-06 0
0.0029916 1.37415e-06 0
0.0029916 1.37415e-06 0
0.00298036 1.71598e-06 0
0.00298036 1.71598e-06 0
0.0029714 1.35898e-06 0
0.0029714 1.35898e-06 0
0.00295785 1.97761e-06 3.17784e-23
0.00295785 1.97761e-06 3.17784e-23
0.00294874 1.55079e-06 6.32703e-23
0.00294874 1.55079e-06 6.32703e-23
0.00293218 2.23742e-06 3.14897e-23