/*--------------------------------*- C++ -*----------------------------------*\
| =========                 |                                                 |
| \\      /  F ield         | OpenFOAM: The Open Source CFD Toolbox           |
|  \\    /   O peration     | Version:  2.1.x                                 |
|   \\  /    A nd           | Web:      www.OpenFOAM.org                      |
|    \\/     M anipulation  |                                                 |
\*---------------------------------------------------------------------------*/
FoamFile
{
    version     2.0;
    format      ascii;
    class       volScalarField;
    location    "0.4";
    object      T;
}
// * * * * * * * * * * * * * * * * * * * * * * * * * * * * * * * * * * * * * //

dimensions      [0 0 0 1 0 0 0];

internalField   nonuniform List<scalar> 
400
(
300.023
300.069
300.117
300.167
300.218
300.27
300.322
300.372
300.418
300.458
300.489
300.509
300.514
300.501
300.468
300.415
300.344
300.257
300.158
300.053
300.07
300.212
300.357
300.508
300.665
300.824
300.984
301.137
301.279
301.4
301.496
301.558
301.573
301.533
301.434
301.273
301.054
300.788
300.486
300.164
300.121
300.364
300.614
300.873
301.142
301.418
301.694
301.96
302.206
302.42
302.588
302.696
302.725
302.659
302.488
302.211
301.833
301.37
300.845
300.285
300.176
300.53
300.894
301.273
301.666
302.071
302.478
302.872
303.238
303.556
303.81
303.976
304.025
303.933
303.686
303.279
302.721
302.036
301.256
300.424
300.237
300.714
301.205
301.716
302.249
302.8
303.355
303.896
304.4
304.843
305.199
305.436
305.514
305.399
305.071
304.52
303.757
302.814
301.738
300.586
300.305
300.919
301.551
302.209
302.899
303.613
304.337
305.047
305.712
306.3
306.778
307.102
307.22
307.088
306.674
305.965
304.97
303.729
302.305
300.777
300.381
301.147
301.934
302.756
303.619
304.516
305.429
306.329
307.177
307.933
308.552
308.981
309.153
309.011
308.512
307.632
306.38
304.799
302.971
301.002
300.464
301.397
302.354
303.354
304.406
305.503
306.624
307.734
308.786
309.729
310.508
311.06
311.302
311.163
310.583
309.529
307.999
306.038
303.745
301.264
300.556
301.67
302.81
304.001
305.254
306.564
307.905
309.239
310.51
311.658
312.615
313.307
313.637
313.518
312.874
311.65
309.83
307.455
304.639
301.567
300.656
301.966
303.301
304.69
306.151
307.677
309.244
310.807
312.306
313.669
314.819
315.67
316.112
316.041
315.359
313.985
311.877
309.061
305.664
301.916
300.765
302.285
303.824
305.414
307.079
308.818
310.604
312.39
314.115
315.699
317.054
318.084
318.669
318.685
318.006
316.518
314.141
310.872
306.837
302.318
300.885
302.633
304.38
306.168
308.027
309.959
311.943
313.935
315.872
317.673
319.243
320.476
321.243
321.398
320.782
319.237
316.632
312.913
308.185
302.785
301.024
303.022
304.984
306.959
308.989
311.086
313.235
315.399
317.521
319.525
321.314
322.774
323.769
324.127
323.652
322.131
319.364
315.22
309.752
303.337
301.195
303.483
305.668
307.818
309.993
312.218
314.489
316.781
319.049
321.226
323.223
324.926
326.191
326.823
326.583
325.193
322.362
317.851
311.607
304.006
301.43
304.086
306.52
308.84
311.139
313.459
315.81
318.181
320.541
322.838
325.001
326.931
328.483
329.447
329.54
328.413
325.658
320.887
313.861
304.857
301.803
304.982
307.731
310.248
312.677
315.082
317.479
319.881
322.273
324.598
326.828
328.899
330.689
331.991
332.49
331.774
329.291
324.442
316.693
306.01
302.489
306.519
309.735
312.539
315.154
317.672
320.08
322.429
324.729
326.97
329.134
331.183
333.031
334.53
335.418
335.248
333.285
328.674
320.398
307.727
303.981
309.537
313.513
316.771
319.548
322.066
324.4
326.598
328.691
330.692
332.604
334.404
336.06
337.49
338.515
338.784
337.619
333.767
325.461
310.586
307.948
316.246
321.137
324.603
327.349
329.659
331.669
333.46
335.088
336.589
337.981
339.254
340.421
341.455
342.27
342.655
342.135
339.632
332.704
315.977
321.732
331.764
336.225
338.855
340.625
341.921
342.925
343.743
344.435
345.041
345.579
346.054
346.48
346.857
347.162
347.329
347.178
346.164
342.363
328.07
)
;

boundaryField
{
    movingWall
    {
        type            fixedValue;
        value           uniform 350;
    }
    fixedWalls
    {
        type            fixedValue;
        value           uniform 300;
    }
    frontAndBack
    {
        type            empty;
    }
}


// ************************************************************************* //
