/*--------------------------------*- C++ -*----------------------------------*\
| =========                 |                                                 |
| \\      /  F ield         | OpenFOAM: The Open Source CFD Toolbox           |
|  \\    /   O peration     | Version:  2.1.x                                 |
|   \\  /    A nd           | Web:      www.OpenFOAM.org                      |
|    \\/     M anipulation  |                                                 |
\*---------------------------------------------------------------------------*/
FoamFile
{
    version     2.0;
    format      ascii;
    class       volScalarField;
    location    "0.4";
    object      p;
}
// * * * * * * * * * * * * * * * * * * * * * * * * * * * * * * * * * * * * * //

dimensions      [0 2 -2 0 0 0 0];

internalField   nonuniform List<scalar> 
400
(
-148.542
-293.072
-312.528
-303.646
-301.338
-300.999
-300.193
-299.336
-298.664
-298.149
-297.745
-297.423
-297.165
-296.962
-296.811
-296.711
-296.667
-296.683
-296.764
-296.897
-293.24
-311.704
-307.908
-301.052
-299.651
-299.662
-299.268
-298.747
-298.301
-297.929
-297.613
-297.349
-297.131
-296.955
-296.821
-296.731
-296.684
-296.683
-296.73
-296.816
-312.824
-308.103
-301.832
-298.946
-298.698
-298.767
-298.531
-298.215
-297.93
-297.672
-297.439
-297.233
-297.055
-296.907
-296.79
-296.707
-296.66
-296.648
-296.673
-296.733
-303.982
-301.351
-299.11
-298.326
-298.248
-298.164
-297.971
-297.766
-297.58
-297.404
-297.237
-297.083
-296.944
-296.823
-296.723
-296.649
-296.602
-296.584
-296.597
-296.638
-301.703
-300.007
-298.974
-298.393
-298.032
-297.772
-297.566
-297.402
-297.265
-297.141
-297.023
-296.911
-296.806
-296.711
-296.629
-296.565
-296.521
-296.5
-296.502
-296.527
-301.395
-300.059
-299.119
-298.417
-297.897
-297.54
-297.297
-297.126
-297
-296.899
-296.81
-296.728
-296.651
-296.579
-296.514
-296.461
-296.422
-296.399
-296.394
-296.403
-300.602
-299.682
-298.92
-298.291
-297.782
-297.399
-297.122
-296.925
-296.787
-296.688
-296.611
-296.546
-296.488
-296.435
-296.386
-296.344
-296.311
-296.289
-296.278
-296.274
-299.74
-299.158
-298.614
-298.118
-297.672
-297.298
-297.002
-296.78
-296.622
-296.512
-296.434
-296.377
-296.33
-296.289
-296.253
-296.221
-296.195
-296.176
-296.162
-296.149
-299.055
-298.702
-298.325
-297.941
-297.561
-297.211
-296.912
-296.674
-296.497
-296.372
-296.287
-296.228
-296.185
-296.152
-296.124
-296.101
-296.081
-296.065
-296.051
-296.034
-298.523
-298.316
-298.058
-297.762
-297.443
-297.125
-296.836
-296.593
-296.403
-296.265
-296.17
-296.105
-296.062
-296.031
-296.007
-295.988
-295.972
-295.959
-295.947
-295.933
-298.101
-297.987
-297.813
-297.586
-297.32
-297.037
-296.765
-296.525
-296.332
-296.185
-296.081
-296.01
-295.962
-295.929
-295.905
-295.886
-295.871
-295.86
-295.851
-295.844
-297.765
-297.715
-297.599
-297.422
-297.198
-296.946
-296.694
-296.465
-296.274
-296.126
-296.017
-295.941
-295.887
-295.848
-295.819
-295.796
-295.778
-295.764
-295.758
-295.763
-297.503
-297.5
-297.423
-297.278
-297.082
-296.856
-296.624
-296.409
-296.226
-296.081
-295.972
-295.892
-295.833
-295.787
-295.748
-295.716
-295.688
-295.668
-295.663
-295.68
-297.318
-297.349
-297.292
-297.161
-296.98
-296.77
-296.554
-296.354
-296.182
-296.045
-295.94
-295.86
-295.796
-295.741
-295.691
-295.643
-295.6
-295.565
-295.554
-295.582
-297.226
-297.276
-297.217
-297.081
-296.9
-296.695
-296.489
-296.301
-296.141
-296.014
-295.915
-295.837
-295.77
-295.707
-295.643
-295.575
-295.508
-295.448
-295.418
-295.448
-297.262
-297.301
-297.211
-297.046
-296.847
-296.635
-296.431
-296.25
-296.1
-295.982
-295.89
-295.816
-295.749
-295.68
-295.601
-295.511
-295.41
-295.308
-295.235
-295.243
-297.483
-297.449
-297.281
-297.057
-296.82
-296.589
-296.38
-296.201
-296.057
-295.947
-295.862
-295.793
-295.728
-295.655
-295.564
-295.449
-295.306
-295.141
-294.985
-294.912
-298.007
-297.748
-297.419
-297.102
-296.81
-296.551
-296.33
-296.15
-296.009
-295.904
-295.826
-295.764
-295.704
-295.633
-295.536
-295.398
-295.206
-294.953
-294.643
-294.34
-299.136
-298.206
-297.552
-297.115
-296.769
-296.486
-296.258
-296.077
-295.941
-295.843
-295.775
-295.727
-295.683
-295.627
-295.541
-295.399
-295.173
-294.815
-294.194
-293.24
-301.101
-298.696
-297.53
-296.995
-296.638
-296.358
-296.136
-295.963
-295.836
-295.751
-295.703
-295.679
-295.668
-295.651
-295.609
-295.511
-295.306
-294.874
-293.773
-291.433
)
;

boundaryField
{
    movingWall
    {
        type            zeroGradient;
    }
    fixedWalls
    {
        type            zeroGradient;
    }
    frontAndBack
    {
        type            empty;
    }
}


// ************************************************************************* //
