/*--------------------------------*- C++ -*----------------------------------*\
| =========                 |                                                 |
| \\      /  F ield         | OpenFOAM: The Open Source CFD Toolbox           |
|  \\    /   O peration     | Version:  2.1.x                                 |
|   \\  /    A nd           | Web:      www.OpenFOAM.org                      |
|    \\/     M anipulation  |                                                 |
\*---------------------------------------------------------------------------*/
FoamFile
{
    version     2.0;
    format      ascii;
    class       surfaceScalarField;
    location    "0.4";
    object      phi;
}
// * * * * * * * * * * * * * * * * * * * * * * * * * * * * * * * * * * * * * //

dimensions      [0 3 -1 0 0 0 0];

internalField   nonuniform List<scalar> 
760
(
0.000498519
0.000498981
0.000232818
0.000263201
0.000122211
0.000108108
6.20088e-05
5.77017e-05
2.90262e-05
3.04826e-05
1.25431e-05
1.39831e-05
4.69163e-06
5.35152e-06
9.04247e-07
1.28739e-06
-9.91505e-07
-6.04242e-07
-1.94239e-06
-1.54912e-06
-2.36454e-06
-2.07786e-06
-2.43014e-06
-2.43442e-06
-2.21722e-06
-2.71294e-06
-1.77011e-06
-2.94711e-06
-1.13281e-06
-3.13728e-06
-3.70994e-07
-3.26179e-06
4.07121e-07
-3.2781e-06
1.01719e-06
-3.11007e-06
1.11815e-06
-2.60098e-06
-1.38187e-06
0.000262532
0.000233948
0.000260675
0.000262557
0.000190768
0.000175515
0.000130041
0.000115929
8.34118e-05
7.46122e-05
5.13033e-05
4.35916e-05
3.05225e-05
2.36323e-05
1.73434e-05
1.19665e-05
9.03435e-06
5.20483e-06
3.83446e-06
1.15078e-06
6.82646e-07
-1.42603e-06
-1.05351e-06
-3.19826e-06
-1.75356e-06
-4.51289e-06
-1.67338e-06
-5.52731e-06
-1.02743e-06
-6.28325e-06
-4.45856e-08
-6.74463e-06
9.89253e-07
-6.81191e-06
1.69419e-06
-6.31497e-06
1.56689e-06
-4.97366e-06
-2.31499e-06
0.000107579
0.000123869
0.000173583
0.000194053
0.000171417
0.000175181
0.000144156
0.00014069
0.000111854
0.000104414
8.15994e-05
7.13463e-05
5.67899e-05
4.59417e-05
3.80511e-05
2.82053e-05
2.45597e-05
1.61962e-05
1.51434e-05
8.06702e-06
8.77172e-06
2.44571e-06
4.6673e-06
-1.59382e-06
2.2687e-06
-4.61427e-06
1.15157e-06
-6.91018e-06
9.55429e-07
-8.58713e-06
1.32623e-06
-9.61545e-06
1.876e-06
-9.86168e-06
2.16179e-06
-9.10074e-06
1.69555e-06
-7.00738e-06
-3.11943e-06
5.74066e-05
6.39625e-05
0.000114399
0.000134561
0.00013722
0.00014986
0.000134806
0.000140604
0.000118863
0.000117857
9.71039e-05
9.06058e-05
7.50288e-05
6.55168e-05
5.56368e-05
4.50973e-05
3.993e-05
2.94031e-05
2.78495e-05
1.76475e-05
1.89221e-05
8.87314e-06
1.25867e-05
2.24154e-06
8.32162e-06
-2.84916e-06
5.66637e-06
-6.75491e-06
4.20108e-06
-9.62184e-06
3.51626e-06
-1.14306e-05
3.1898e-06
-1.20352e-05
2.78139e-06
-1.11923e-05
1.85213e-06
-8.5781e-06
-3.76728e-06
3.03622e-05
3.11003e-05
7.36275e-05
8.87958e-05
0.000101702
0.000119285
0.000112773
0.000127033
0.000110178
0.000117952
9.86145e-05
9.9669e-05
8.28724e-05
7.87589e-05
6.64901e-05
5.89796e-05
5.1493e-05
4.19001e-05
3.87819e-05
2.78585e-05
2.85718e-05
1.65833e-05
2.07175e-05
7.59578e-06
1.49159e-05
4.52413e-07
1.08068e-05
-5.14571e-06
8.01031e-06
-9.32535e-06
6.13588e-06
-1.20562e-05
4.78339e-06
-1.31828e-05
3.55265e-06
-1.24616e-05
2.06687e-06
-9.5923e-06
-4.20039e-06
1.39566e-05
1.46438e-05
4.30235e-05
5.72288e-05
6.94281e-05
9.03807e-05
8.65668e-05
0.000107395
9.29671e-05
0.000109052
9.02803e-05
9.98557e-05
8.16178e-05
8.49215e-05
7.0002e-05
6.80954e-05
5.76848e-05
5.17173e-05
4.60818e-05
3.69616e-05
3.59321e-05
2.4233e-05
2.75068e-05
1.35211e-05
2.07907e-05
4.66853e-06
1.56076e-05
-2.46269e-06
1.16944e-05
-7.91208e-06
8.73953e-06
-1.16013e-05
6.40803e-06
-1.33513e-05
4.36516e-06
-1.29187e-05
2.30726e-06
-1.00344e-05
-4.39312e-06
5.34828e-06
6.79552e-06
2.32846e-05
3.67926e-05
4.46135e-05
6.65517e-05
6.24656e-05
8.70424e-05
7.33374e-05
9.56798e-05
7.67367e-05
9.39565e-05
7.40638e-05
8.50943e-05
6.73651e-05
7.22942e-05
5.85648e-05
5.80175e-05
4.91495e-05
4.38769e-05
4.01083e-05
3.07743e-05
3.20005e-05
1.91289e-05
2.50664e-05
9.10267e-06
1.93307e-05
7.72952e-07
1.46813e-05
-5.76259e-06
1.09211e-05
-1.03411e-05
7.80721e-06
-1.27373e-05
5.08476e-06
-1.26963e-05
2.52814e-06
-9.97779e-06
-4.36498e-06
1.26544e-06
3.03009e-06
1.16849e-05
2.38731e-05
2.72117e-05
4.85249e-05
4.27822e-05
6.89719e-05
5.47185e-05
8.12436e-05
6.14116e-05
8.47633e-05
6.29601e-05
8.10459e-05
6.04058e-05
7.23485e-05
5.50938e-05
6.08294e-05
4.82846e-05
4.81862e-05
4.09719e-05
3.55869e-05
3.38403e-05
2.37604e-05
2.72976e-05
1.31454e-05
2.15353e-05
4.03529e-06
1.65879e-05
-3.31521e-06
1.23819e-05
-8.63519e-06
8.77527e-06
-1.16306e-05
5.59568e-06
-1.20167e-05
2.68914e-06
-9.57125e-06
-4.17584e-06
-6.67858e-07
1.19795e-06
4.87559e-06
1.58297e-05
1.52954e-05
3.56051e-05
2.75005e-05
5.42668e-05
3.84949e-05
6.77492e-05
4.63565e-05
7.44016e-05
5.04063e-05
7.44961e-05
5.08885e-05
6.93663e-05
4.8546e-05
6.0672e-05
4.42773e-05
4.99548e-05
3.89205e-05
3.84438e-05
3.3147e-05
2.70339e-05
2.74349e-05
1.63574e-05
2.20843e-05
6.8859e-06
1.72484e-05
-9.79282e-07
1.29657e-05
-6.85252e-06
9.18996e-06
-1.03548e-05
5.82279e-06
-1.11495e-05
2.76286e-06
-9.0113e-06
-3.91298e-06
-1.67279e-06
3.70723e-07
6.74171e-07
1.09828e-05
7.04122e-06
2.67381e-05
1.58334e-05
4.29745e-05
2.4942e-05
5.61407e-05
3.26026e-05
6.4241e-05
3.77966e-05
6.68022e-05
4.02389e-05
6.44239e-05
4.01677e-05
5.82432e-05
3.81019e-05
4.95206e-05
3.46468e-05
3.93989e-05
3.03701e-05
2.88107e-05
2.57399e-05
1.84876e-05
2.11062e-05
9.01959e-06
1.6704e-05
9.22873e-07
1.26636e-05
-5.31206e-06
9.02159e-06
-9.21282e-06
5.73846e-06
-1.03663e-05
2.73699e-06
-8.50982e-06
-3.67599e-06
-2.29946e-06
1.70166e-07
-2.1569e-06
8.34021e-06
1.09644e-06
2.09848e-05
6.85933e-06
3.47117e-05
1.38125e-05
4.66875e-05
2.05401e-05
5.50134e-05
2.59657e-05
5.88766e-05
2.95085e-05
5.83811e-05
3.10379e-05
5.42138e-05
3.07398e-05
4.73187e-05
2.89729e-05
3.86659e-05
2.61552e-05
2.91283e-05
2.26918e-05
1.9451e-05
1.89359e-05
1.02755e-05
1.51706e-05
2.1882e-06
1.15977e-05
-4.23916e-06
8.3253e-06
-8.44047e-06
5.3584e-06
-9.8994e-06
2.61243e-06
-8.26384e-06
-3.56355e-06
-2.80085e-06
4.71012e-07
-4.30272e-06
7.34206e-06
-3.44992e-06
1.7632e-05
-2.03895e-07
2.89657e-05
4.71239e-06
3.92712e-05
1.0246e-05
4.69798e-05
1.54005e-05
5.1222e-05
1.94616e-05
5.182e-05
2.20567e-05
4.91187e-05
2.31101e-05
4.37653e-05
2.27562e-05
3.65198e-05
2.12521e-05
2.81325e-05
1.8911e-05
1.92921e-05
1.60578e-05
1.06287e-05
1.29994e-05
2.7466e-06
9.99628e-06
-3.736e-06
7.22486e-06
-8.16905e-06
4.73102e-06
-9.90555e-06
2.39822e-06
-8.43104e-06
-3.66532e-06
-3.28748e-06
1.2585e-06
-6.12294e-06
7.67749e-06
-7.13471e-06
1.61437e-05
-5.87292e-06
2.52039e-05
-2.65872e-06
3.3557e-05
1.74112e-06
4.008e-05
6.44788e-06
4.40153e-05
1.07073e-05
4.50606e-05
1.40022e-05
4.33238e-05
1.60677e-05
3.91998e-05
1.68522e-05
3.32353e-05
1.6461e-05
2.60237e-05
1.51047e-05
1.81484e-05
1.30613e-05
1.01722e-05
1.06453e-05
2.66261e-06
8.17185e-06
-3.76254e-06
5.89695e-06
-8.39414e-06
3.92513e-06
-1.04337e-05
2.10432e-06
-9.11024e-06
-4.06099e-06
-3.81433e-06
2.57285e-06
-7.77694e-06
9.14009e-06
-1.01872e-05
1.60539e-05
-1.03505e-05
2.28672e-05
-8.36977e-06
2.90763e-05
-4.83285e-06
3.40431e-05
-5.18231e-07
3.72007e-05
3.82501e-06
3.82173e-05
7.60424e-06
3.70445e-05
1.04288e-05
3.38752e-05
1.21041e-05
2.906e-05
1.26025e-05
2.30253e-05
1.20314e-05
1.62195e-05
1.06094e-05
9.09418e-06
8.6462e-06
2.1258e-06
6.51176e-06
-4.1281e-06
4.56637e-06
-8.94874e-06
3.0228e-06
-1.13902e-05
1.73383e-06
-1.03213e-05
-4.82716e-06
-4.40976e-06
4.48263e-06
-9.2748e-06
1.15051e-05
-1.25574e-05
1.68365e-05
-1.35028e-05
2.13126e-05
-1.21774e-05
2.52508e-05
-9.1012e-06
2.84669e-05
-4.98484e-06
3.05843e-05
-5.46477e-07
3.1279e-05
3.59854e-06
3.03995e-05
6.98952e-06
2.79843e-05
9.33195e-06
2.42175e-05
1.04887e-05
1.93686e-05
1.04677e-05
1.37405e-05
9.41542e-06
7.6464e-06
7.61779e-06
1.42344e-06
5.49098e-06
-4.50129e-06
3.52653e-06
-9.48428e-06
2.12997e-06
-1.24936e-05
1.27841e-06
-1.19697e-05
-6.04876e-06
-5.07383e-06
7.05646e-06
-1.04491e-05
1.43804e-05
-1.38666e-05
1.77541e-05
-1.47969e-05
1.97428e-05
-1.346e-05
2.14139e-05
-1.03919e-05
2.28987e-05
-6.24528e-06
2.39377e-05
-1.67435e-06
2.4208e-05
2.73583e-06
2.34893e-05
6.50884e-06
2.17112e-05
9.2945e-06
1.89319e-05
1.08735e-05
1.52896e-05
1.11599e-05
1.09541e-05
1.02118e-05
6.09456e-06
8.25496e-06
8.80251e-07
5.71354e-06
-4.45987e-06
3.20811e-06
-9.47884e-06
1.43602e-06
-1.32215e-05
7.34138e-07
-1.37678e-05
-7.81463e-06
-5.71021e-06
1.02666e-05
-1.07824e-05
1.69526e-05
-1.3222e-05
1.76936e-05
-1.31696e-05
1.71905e-05
-1.11497e-05
1.6894e-05
-7.71542e-06
1.69644e-05
-3.41198e-06
1.71343e-05
1.23344e-06
1.70626e-05
5.72867e-06
1.64941e-05
9.63879e-06
1.53011e-05
1.26057e-05
1.3465e-05
1.43612e-05
1.1034e-05
1.47384e-05
8.07692e-06
1.36893e-05
4.64365e-06
1.13245e-05
7.45011e-07
7.98439e-06
-3.61972e-06
4.32963e-06
-8.32409e-06
1.38299e-06
-1.27749e-05
1.82717e-07
-1.50675e-05
-1.01319e-05
-5.87664e-06
1.36433e-05
-8.91249e-06
1.74885e-05
-8.79607e-06
1.50772e-05
-6.8056e-06
1.27e-05
-3.68097e-06
1.12693e-05
1.82357e-07
1.06011e-05
4.48139e-06
1.03352e-05
8.906e-06
1.0138e-05
1.31222e-05
9.77793e-06
1.67913e-05
9.13201e-06
1.95971e-05
8.15914e-06
2.12666e-05
6.86459e-06
2.15811e-05
5.26235e-06
2.03878e-05
3.33702e-06
1.76264e-05
1.0064e-06
1.34085e-05
-1.90189e-06
8.18132e-06
-5.59688e-06
3.06181e-06
-1.01553e-05
5.19987e-08
-1.45577e-05
-1.25799e-05
-3.55255e-06
1.46958e-05
-1.16346e-06
1.25994e-05
2.99094e-06
8.42277e-06
7.08799e-06
6.10294e-06
1.09109e-05
4.94639e-06
1.45929e-05
4.41919e-06
1.82231e-05
4.205e-06
2.17638e-05
4.09724e-06
2.50686e-05
3.97305e-06
2.79291e-05
3.77156e-06
3.01168e-05
3.47141e-06
3.14103e-05
3.0711e-06
3.16019e-05
2.57077e-06
3.0487e-05
1.95187e-06
2.78442e-05
1.14917e-06
2.34546e-05
-1.22267e-08
1.71542e-05
-1.79653e-06
9.32475e-06
-4.82588e-06
2.072e-06
-9.80499e-06
-1.30079e-05
1.21958e-05
2.22951e-05
2.82179e-05
3.18208e-05
3.42672e-05
3.61864e-05
3.78914e-05
3.94886e-05
4.09617e-05
4.22332e-05
4.32046e-05
4.37757e-05
4.38465e-05
4.32984e-05
4.19475e-05
3.94353e-05
3.51388e-05
2.78129e-05
1.55079e-05
)
;

boundaryField
{
    movingWall
    {
        type            calculated;
        value           uniform 0;
    }
    fixedWalls
    {
        type            calculated;
        value           uniform 0;
    }
    frontAndBack
    {
        type            empty;
        value           nonuniform 0();
    }
}


// ************************************************************************* //
