/*--------------------------------*- C++ -*----------------------------------*\
| =========                 |                                                 |
| \\      /  F ield         | OpenFOAM: The Open Source CFD Toolbox           |
|  \\    /   O peration     | Version:  2.1.x                                 |
|   \\  /    A nd           | Web:      www.OpenFOAM.org                      |
|    \\/     M anipulation  |                                                 |
\*---------------------------------------------------------------------------*/
FoamFile
{
    version     2.0;
    format      ascii;
    class       volVectorField;
    location    "0.4";
    object      U;
}
// * * * * * * * * * * * * * * * * * * * * * * * * * * * * * * * * * * * * * //

dimensions      [0 1 -1 0 0 0 0];

internalField   nonuniform List<vector> 
400
(
(1.83397 1.83418 0)
(8.92987 1.77788 0)
(5.00203 0.905467 0)
(1.57775 0.480093 0)
(0.673845 0.245621 0)
(0.366366 0.0969446 0)
(0.156149 0.0209144 0)
(0.043254 -0.0110683 0)
(-0.00845877 -0.0227273 0)
(-0.0334945 -0.0266236 0)
(-0.0456725 -0.0280995 0)
(-0.0497978 -0.0289891 0)
(-0.0478874 -0.0298764 0)
(-0.0409626 -0.0308747 0)
(-0.0297876 -0.0318758 0)
(-0.015368 -0.0326246 0)
(0.000726701 -0.0326903 0)
(0.0158748 -0.0312647 0)
(0.024072 -0.026526 0)
(0.0126705 -0.0141878 0)
(1.77466 8.94225 0)
(6.46567 6.48242 0)
(5.14813 3.56223 0)
(3.01196 1.98849 0)
(1.93765 1.10315 0)
(1.28544 0.555809 0)
(0.784027 0.249912 0)
(0.449567 0.0937858 0)
(0.244091 0.0151197 0)
(0.11624 -0.0265962 0)
(0.0367555 -0.051042 0)
(-0.00977169 -0.0672968 0)
(-0.0325817 -0.0794801 0)
(-0.0376039 -0.0892285 0)
(-0.0292529 -0.0967894 0)
(-0.0117551 -0.101497 0)
(0.0100051 -0.101876 0)
(0.0297471 -0.0953362 0)
(0.03751 -0.0770904 0)
(0.018399 -0.0378221 0)
(0.900248 5.03378 0)
(3.5457 5.19976 0)
(3.70518 3.75829 0)
(3.10485 2.7111 0)
(2.51627 1.86693 0)
(1.91894 1.1785 0)
(1.35913 0.694781 0)
(0.919369 0.386532 0)
(0.602521 0.194957 0)
(0.379654 0.0741886 0)
(0.226254 -0.00498286 0)
(0.124698 -0.0600225 0)
(0.062057 -0.100623 0)
(0.028811 -0.131489 0)
(0.0174066 -0.154108 0)
(0.0209139 -0.16777 0)
(0.0321353 -0.170046 0)
(0.0430356 -0.156819 0)
(0.043204 -0.121784 0)
(0.0195382 -0.0552478 0)
(0.476193 1.61659 0)
(1.97637 3.09427 0)
(2.66643 3.20095 0)
(2.77535 2.86642 0)
(2.57222 2.29266 0)
(2.17589 1.67015 0)
(1.7144 1.14144 0)
(1.2886 0.741763 0)
(0.936408 0.453758 0)
(0.660709 0.249521 0)
(0.45346 0.103684 0)
(0.303596 -0.00306141 0)
(0.200056 -0.0834066 0)
(0.133032 -0.144413 0)
(0.0938531 -0.188843 0)
(0.0743515 -0.216265 0)
(0.0663463 -0.223834 0)
(0.0613784 -0.206746 0)
(0.0497551 -0.158374 0)
(0.0204706 -0.0697807 0)
(0.243773 0.713856 0)
(1.09636 2.0382 0)
(1.8354 2.64924 0)
(2.21831 2.71215 0)
(2.28494 2.41204 0)
(2.1194 1.95105 0)
(1.82441 1.47814 0)
(1.48946 1.06238 0)
(1.16927 0.72326 0)
(0.890104 0.4574 0)
(0.661117 0.252146 0)
(0.481821 0.0934389 0)
(0.347043 -0.030014 0)
(0.249832 -0.125355 0)
(0.182696 -0.195668 0)
(0.137916 -0.24062 0)
(0.107612 -0.257239 0)
(0.0838358 -0.240621 0)
(0.0581688 -0.184456 0)
(0.0218771 -0.080693 0)
(0.0964037 0.408146 0)
(0.552569 1.39966 0)
(1.15845 2.08317 0)
(1.61507 2.36231 0)
(1.84647 2.3022 0)
(1.86916 2.03127 0)
(1.73944 1.66949 0)
(1.52348 1.29594 0)
(1.27539 0.952917 0)
(1.03127 0.657563 0)
(0.811614 0.411947 0)
(0.625524 0.211135 0)
(0.474786 0.0487676 0)
(0.357006 -0.0799089 0)
(0.267524 -0.176862 0)
(0.20045 -0.241199 0)
(0.14924 -0.269677 0)
(0.107135 -0.257464 0)
(0.0673322 -0.198838 0)
(0.0235764 -0.0869308 0)
(0.0208479 0.198462 0)
(0.247984 0.907133 0)
(0.681729 1.54679 0)
(1.10205 1.94003 0)
(1.39698 2.05902 0)
(1.53522 1.95981 0)
(1.53267 1.72496 0)
(1.42848 1.42669 0)
(1.26489 1.1155 0)
(1.07673 0.821182 0)
(0.888583 0.55796 0)
(0.715372 0.330412 0)
(0.564511 0.13868 0)
(0.438182 -0.0179481 0)
(0.335185 -0.139047 0)
(0.252218 -0.222353 0)
(0.184721 -0.263934 0)
(0.127544 -0.258884 0)
(0.0756485 -0.202125 0)
(0.0252109 -0.0883859 0)
(-0.011158 0.0855611 0)
(0.0916781 0.577973 0)
(0.376293 1.12308 0)
(0.712363 1.54433 0)
(1.00023 1.76767 0)
(1.18894 1.79682 0)
(1.26729 1.67725 0)
(1.25042 1.46401 0)
(1.16484 1.20472 0)
(1.03794 0.93391 0)
(0.892649 0.673372 0)
(0.745674 0.435296 0)
(0.607629 0.226049 0)
(0.484167 0.0494718 0)
(0.377266 -0.0909117 0)
(0.286326 -0.190826 0)
(0.209003 -0.245166 0)
(0.141914 -0.248626 0)
(0.0816739 -0.196651 0)
(0.026443 -0.0858914 0)
(-0.0230886 0.0345145 0)
(0.0118407 0.377182 0)
(0.184166 0.818234 0)
(0.428375 1.21468 0)
(0.673284 1.48178 0)
(0.867811 1.59294 0)
(0.987105 1.5636 0)
(1.02912 1.42904 0)
(1.00587 1.22788 0)
(0.935172 0.993333 0)
(0.835125 0.750214 0)
(0.72105 0.515445 0)
(0.604393 0.300199 0)
(0.492765 0.112397 0)
(0.390516 -0.0412757 0)
(0.299411 -0.15423 0)
(0.219219 -0.219784 0)
(0.148249 -0.231828 0)
(0.0844241 -0.186016 0)
(0.0270318 -0.0809782 0)
(-0.0275209 0.0112315 0)
(-0.0321033 0.255185 0)
(0.0598847 0.606038 0)
(0.222646 0.956306 0)
(0.412297 1.22831 0)
(0.58699 1.38285 0)
(0.718275 1.41566 0)
(0.79407 1.34494 0)
(0.815328 1.19844 0)
(0.790817 1.00451 0)
(0.732553 0.787425 0)
(0.652664 0.565992 0)
(0.561635 0.354304 0)
(0.467632 0.163299 0)
(0.376437 0.00235343 0)
(0.291646 -0.119677 0)
(0.21486 -0.194291 0)
(0.14589 -0.214107 0)
(0.0834668 -0.17445 0)
(0.0268517 -0.0755736 0)
(-0.0298507 0.00235953 0)
(-0.0600837 0.184021 0)
(-0.025732 0.463946 0)
(0.0704334 0.7632 0)
(0.20539 1.01764 0)
(0.348776 1.1868 0)
(0.474231 1.25615 0)
(0.565196 1.23157 0)
(0.615283 1.13081 0)
(0.625887 0.975912 0)
(0.60312 0.788266 0)
(0.555179 0.586314 0)
(0.490515 0.385197 0)
(0.416796 0.19755 0)
(0.340422 0.034639 0)
(0.266291 -0.0927676 0)
(0.197573 -0.174261 0)
(0.135417 -0.200678 0)
(0.0788627 -0.166168 0)
(0.025871 -0.0717067 0)
(-0.0320554 0.00392339 0)
(-0.0815428 0.149682 0)
(-0.0902636 0.375884 0)
(-0.0468796 0.625758 0)
(0.0400168 0.850253 0)
(0.150099 1.01392 0)
(0.261216 1.09886 0)
(0.355748 1.10343 0)
(0.423025 1.03738 0)
(0.459043 0.916449 0)
(0.464876 0.758023 0)
(0.44481 0.578557 0)
(0.404781 0.392675 0)
(0.351306 0.213378 0)
(0.290804 0.0528273 0)
(0.229087 -0.0768839 0)
(0.170771 -0.163523 0)
(0.118385 -0.195587 0)
(0.0710077 -0.164822 0)
(0.0240989 -0.0712898 0)
(-0.0349376 0.0150246 0)
(-0.101031 0.1444 0)
(-0.143424 0.329911 0)
(-0.140917 0.533393 0)
(-0.0927473 0.72104 0)
(-0.0120493 0.865572 0)
(0.0831322 0.950128 0)
(0.175736 0.96929 0)
(0.252913 0.927126 0)
(0.307036 0.833819 0)
(0.335237 0.702393 0)
(0.338325 0.546389 0)
(0.319649 0.378723 0)
(0.284221 0.211561 0)
(0.238081 0.0568809 0)
(0.187719 -0.0727146 0)
(0.139277 -0.163481 0)
(0.0970585 -0.201046 0)
(0.060428 -0.173071 0)
(0.0215049 -0.0760288 0)
(-0.0389538 0.0361329 0)
(-0.120656 0.163551 0)
(-0.189445 0.316513 0)
(-0.216597 0.475322 0)
(-0.196139 0.621705 0)
(-0.137169 0.73797 0)
(-0.0548054 0.81067 0)
(0.0349411 0.833144 0)
(0.118368 0.805664 0)
(0.185647 0.733874 0)
(0.231068 0.626635 0)
(0.252569 0.494154 0)
(0.251067 0.346848 0)
(0.229891 0.195042 0)
(0.194393 0.0494216 0)
(0.151547 -0.0779578 0)
(0.10922 -0.172532 0)
(0.0743161 -0.216784 0)
(0.0476055 -0.192228 0)
(0.0179163 -0.0874892 0)
(-0.0445158 0.0684785 0)
(-0.14101 0.203362 0)
(-0.228071 0.326378 0)
(-0.272219 0.439833 0)
(-0.26653 0.541688 0)
(-0.219169 0.624006 0)
(-0.143693 0.677508 0)
(-0.0549861 0.695566 0)
(0.0333231 0.675987 0)
(0.110391 0.620866 0)
(0.168702 0.535392 0)
(0.204004 0.426443 0)
(0.21504 0.301538 0)
(0.203341 0.168417 0)
(0.173196 0.0354161 0)
(0.131683 -0.0872814 0)
(0.0884406 -0.185586 0)
(0.0540341 -0.239289 0)
(0.033026 -0.221767 0)
(0.0129427 -0.107284 0)
(-0.0519494 0.113751 0)
(-0.160882 0.258443 0)
(-0.253753 0.347597 0)
(-0.29834 0.412815 0)
(-0.292146 0.468382 0)
(-0.245012 0.514691 0)
(-0.169699 0.545874 0)
(-0.079606 0.555553 0)
(0.0126755 0.539871 0)
(0.096429 0.498284 0)
(0.163361 0.433008 0)
(0.207771 0.347955 0)
(0.226574 0.247753 0)
(0.219393 0.137189 0)
(0.188897 0.0214003 0)
(0.141417 -0.0927767 0)
(0.087694 -0.193806 0)
(0.0425485 -0.260788 0)
(0.0180089 -0.258382 0)
(0.00616833 -0.137414 0)
(-0.0604596 0.174431 0)
(-0.174599 0.318389 0)
(-0.251736 0.362027 0)
(-0.274465 0.376079 0)
(-0.251122 0.387475 0)
(-0.193936 0.400756 0)
(-0.114051 0.411295 0)
(-0.0221833 0.41252 0)
(0.0713948 0.39949 0)
(0.157319 0.369959 0)
(0.22759 0.324066 0)
(0.275897 0.263455 0)
(0.297822 0.19031 0)
(0.291082 0.106631 0)
(0.256034 0.0140522 0)
(0.196774 -0.0851379 0)
(0.122984 -0.184681 0)
(0.0521829 -0.267621 0)
(0.00758123 -0.293918 0)
(-0.00157453 -0.180969 0)
(-0.0630703 0.251215 0)
(-0.16313 0.360366 0)
(-0.188324 0.341199 0)
(-0.162664 0.307448 0)
(-0.109105 0.28535 0)
(-0.0377815 0.275755 0)
(0.0452235 0.272545 0)
(0.133976 0.26878 0)
(0.221981 0.259309 0)
(0.302394 0.241347 0)
(0.368558 0.214054 0)
(0.414505 0.177743 0)
(0.43527 0.133009 0)
(0.42705 0.0798996 0)
(0.387516 0.0172868 0)
(0.316755 -0.0570546 0)
(0.219155 -0.144371 0)
(0.108286 -0.23902 0)
(0.0182704 -0.30959 0)
(-0.00284109 -0.238636 0)
(-0.0194312 0.306113 0)
(-0.0613474 0.331165 0)
(0.0110439 0.252419 0)
(0.100895 0.194239 0)
(0.180767 0.161676 0)
(0.255146 0.145966 0)
(0.328208 0.139222 0)
(0.400438 0.135447 0)
(0.469765 0.130773 0)
(0.532456 0.123162 0)
(0.583995 0.111845 0)
(0.619807 0.0967256 0)
(0.635589 0.0777877 0)
(0.627255 0.0544525 0)
(0.590651 0.0248108 0)
(0.521374 -0.015316 0)
(0.413798 -0.0732475 0)
(0.26419 -0.157911 0)
(0.10437 -0.264331 0)
(0.042044 -0.273519 0)
(0.286515 0.159819 0)
(0.359359 0.146124 0)
(0.502121 0.0952272 0)
(0.603937 0.0640736 0)
(0.663863 0.0483599 0)
(0.705782 0.0411262 0)
(0.741287 0.0381267 0)
(0.774222 0.0368125 0)
(0.80515 0.0357529 0)
(0.832971 0.0342548 0)
(0.855824 0.0320612 0)
(0.871674 0.0291206 0)
(0.878534 0.0253887 0)
(0.874297 0.0206064 0)
(0.856149 0.013969 0)
(0.819136 0.00348966 0)
(0.752237 -0.0153122 0)
(0.631303 -0.0502502 0)
(0.452576 -0.108416 0)
(0.324304 -0.137682 0)
)
;

boundaryField
{
    movingWall
    {
        type            fixedValue;
        value           uniform (1 0 0);
    }
    fixedWalls
    {
        type            fixedValue;
        value           uniform (0 0 0);
    }
    frontAndBack
    {
        type            empty;
    }
}


// ************************************************************************* //
