/*--------------------------------*- C++ -*----------------------------------*\
| =========                 |                                                 |
| \\      /  F ield         | OpenFOAM: The Open Source CFD Toolbox           |
|  \\    /   O peration     | Version:  2.1.x                                 |
|   \\  /    A nd           | Web:      www.OpenFOAM.org                      |
|    \\/     M anipulation  |                                                 |
\*---------------------------------------------------------------------------*/
FoamFile
{
    version     2.0;
    format      ascii;
    class       volScalarField;
    location    "0.3";
    object      p;
}
// * * * * * * * * * * * * * * * * * * * * * * * * * * * * * * * * * * * * * //

dimensions      [0 2 -2 0 0 0 0];

internalField   nonuniform List<scalar> 
3875
(
19.9373
19.8657
19.8253
19.793
19.7573
19.7202
19.6849
19.6505
19.6159
19.5819
19.5482
19.5143
19.4801
19.4464
19.4123
19.3776
19.3421
19.3066
19.2717
19.2366
19.2002
19.1619
19.1231
19.0841
19.045
19.0077
18.9704
18.9319
18.893
18.856
18.8196
18.784
18.7483
18.7117
18.674
18.6372
18.6003
18.565
18.5312
18.5008
18.4744
18.4577
18.4605
18.5077
18.6143
18.8401
19.2293
19.9104
20.8479
22.1385
19.9348
19.8616
19.8206
19.7873
19.7535
19.7181
19.6821
19.6463
19.6129
19.5812
19.5485
19.5136
19.4779
19.4448
19.4144
19.3792
19.3419
19.3055
19.272
19.2378
19.2032
19.1633
19.123
19.0831
19.044
19.0051
18.9701
18.9304
18.8917
18.8558
18.8197
18.7826
18.7489
18.7113
18.674
18.6368
18.599
18.5601
18.5258
18.4937
18.4648
18.4345
18.4219
18.4264
18.4889
18.6058
18.8798
19.311
20.0004
20.8171
19.9317
19.8591
19.819
19.7862
19.7543
19.7221
19.6863
19.6491
19.6155
19.5822
19.5491
19.5165
19.4801
19.4452
19.4147
19.3794
19.3414
19.3043
19.2691
19.2341
19.1982
19.1641
19.1275
19.0859
19.0459
19.0069
18.9688
18.9302
18.891
18.8547
18.8184
18.7827
18.7485
18.7098
18.6718
18.6348
18.597
18.5587
18.5201
18.4811
18.4385
18.3962
18.3502
18.3103
18.2617
18.235
18.1926
18.2594
18.3124
18.6846
19.9365
19.8597
19.8171
19.7864
19.7527
19.7178
19.683
19.6488
19.6157
19.5837
19.5506
19.5162
19.4799
19.4446
19.4119
19.3787
19.3451
19.3073
19.2676
19.2304
19.1957
19.1607
19.124
19.0867
19.0487
19.0088
18.9698
18.9297
18.889
18.8525
18.8192
18.7857
18.7479
18.7077
18.6695
18.6327
18.5951
18.5549
18.5119
18.4645
18.4167
18.3594
18.2867
18.1934
18.0573
17.8507
17.5148
16.9682
16.2143
15.3682
19.9369
19.8643
19.8235
19.7926
19.7569
19.7208
19.6858
19.6508
19.6164
19.5833
19.5503
19.5164
19.4815
19.4464
19.4124
19.3781
19.3426
19.3059
19.2693
19.2338
19.1982
19.1615
19.1233
19.085
19.047
19.0087
18.9692
18.9293
18.891
18.8552
18.8196
18.7839
18.747
18.7088
18.6707
18.6333
18.5944
18.5533
18.5055
18.4527
18.3972
18.3346
18.2417
18.1215
17.9284
17.6294
17.1003
16.1491
14.3415
10.5388
19.9331
19.861
19.8208
19.7884
19.7528
19.7169
19.6837
19.6502
19.6146
19.5802
19.5473
19.5144
19.48
19.4466
19.4116
19.3764
19.3413
19.3064
19.2708
19.2355
19.1988
19.1615
19.1229
19.0828
19.0434
19.009
18.9718
18.9333
18.8944
18.8558
18.818
18.7835
18.7489
18.7134
18.6752
18.6393
18.6019
18.5659
18.5322
18.5016
18.4736
18.4567
18.4607
18.5067
18.6081
18.8321
19.2008
19.859
20.7546
22.0756
19.9306
19.8549
19.8162
19.7851
19.7503
19.7157
19.6839
19.647
19.6116
19.5824
19.5515
19.5127
19.4747
19.4435
19.4124
19.3779
19.3423
19.3087
19.2745
19.2367
19.1998
19.1629
19.1225
19.0797
19.0411
19.0061
18.9713
18.9311
18.8924
18.8563
18.8184
18.7815
18.7458
18.711
18.6734
18.6376
18.5997
18.5625
18.5284
18.497
18.4653
18.4341
18.4213
18.4284
18.4849
18.6057
18.856
19.2685
19.9005
20.6744
19.9283
19.8535
19.8131
19.7837
19.7557
19.7229
19.6861
19.6485
19.6119
19.5781
19.5475
19.5166
19.4804
19.4453
19.4162
19.3805
19.3426
19.305
19.2702
19.2335
19.1962
19.163
19.1226
19.0815
19.0462
19.0102
18.9706
18.928
18.8882
18.8538
18.8179
18.7827
18.7472
18.7111
18.6767
18.6417
18.6012
18.5613
18.5206
18.4797
18.4351
18.3938
18.3497
18.3095
18.2645
18.2297
18.1823
18.2244
18.2358
18.5489
19.9316
19.8511
19.8114
19.7855
19.7519
19.716
19.6832
19.6483
19.6137
19.581
19.5486
19.5149
19.4828
19.4485
19.4148
19.3783
19.3401
19.3076
19.2715
19.2315
19.1943
19.1598
19.1248
19.0841
19.0434
19.0061
18.9705
18.9285
18.8883
18.8536
18.8178
18.7856
18.7516
18.7098
18.6702
18.633
18.5977
18.5579
18.5144
18.4654
18.4141
18.3547
18.2854
18.1898
18.056
17.8358
17.5089
16.9354
16.1815
15.2198
19.9322
19.8587
19.8185
19.7873
19.7527
19.7184
19.6854
19.6503
19.6146
19.5812
19.5502
19.5162
19.4806
19.4452
19.4115
19.3777
19.3415
19.306
19.2708
19.2354
19.201
19.1625
19.1218
19.0814
19.0442
19.0091
18.9701
18.9294
18.8918
18.8558
18.8192
18.7828
18.7475
18.7097
18.6714
18.6336
18.5946
18.5552
18.5081
18.4576
18.3999
18.3327
18.2422
18.1218
17.9296
17.6265
17.0958
16.1337
14.3385
10.5725
19.936
19.8587
19.8164
19.7857
19.7537
19.7198
19.6889
19.6533
19.6146
19.5798
19.5485
19.5155
19.4794
19.4457
19.413
19.3796
19.3446
19.3079
19.2716
19.2358
19.1988
19.163
19.126
19.0856
19.0438
19.0046
18.9675
18.932
18.896
18.8566
18.8184
18.7816
18.7463
18.7116
18.6751
18.641
18.6061
18.5687
18.534
18.5011
18.4728
18.4563
18.4592
18.5052
18.6043
18.8238
19.189
19.8334
20.7218
22.0542
19.9314
19.8532
19.8155
19.7842
19.7503
19.7192
19.6853
19.6485
19.6159
19.585
19.5481
19.5119
19.4761
19.445
19.4137
19.3797
19.3472
19.3093
19.2696
19.2329
19.1986
19.1665
19.1284
19.0846
19.0443
19.0066
18.9699
18.9327
18.8931
18.8534
18.8146
18.7795
18.7465
18.7131
18.6768
18.64
18.6003
18.5623
18.5295
18.4953
18.4609
18.4336
18.4217
18.4309
18.4836
18.603
18.843
19.2499
19.8618
20.6307
19.9325
19.8513
19.8132
19.7861
19.7537
19.722
19.6892
19.6495
19.6138
19.578
19.5447
19.5161
19.4837
19.4492
19.4163
19.3822
19.346
19.3079
19.2707
19.2318
19.1947
19.1606
19.1245
19.0852
19.0476
19.0133
18.9726
18.9318
18.892
18.8535
18.8167
18.7818
18.7471
18.7092
18.672
18.6373
18.5988
18.5596
18.5203
18.4802
18.4372
18.3959
18.3533
18.3108
18.2622
18.2277
18.1751
18.2088
18.2046
18.5048
19.9335
19.8509
19.8106
19.7834
19.7531
19.7196
19.6848
19.6508
19.6149
19.5792
19.5475
19.5156
19.4844
19.4484
19.4129
19.3812
19.3438
19.3084
19.2744
19.2338
19.1973
19.1597
19.1218
19.0809
19.0427
19.0099
18.9719
18.9304
18.8919
18.8523
18.8149
18.7824
18.7499
18.7094
18.6694
18.636
18.6017
18.5608
18.5146
18.465
18.4147
18.3542
18.2847
18.1848
18.0542
17.8329
17.5048
16.9247
16.1663
15.2005
19.9356
19.858
19.8165
19.7874
19.7556
19.7211
19.6848
19.6494
19.6153
19.5819
19.552
19.5173
19.4813
19.4459
19.4122
19.3804
19.3438
19.3065
19.2714
19.2351
19.1994
19.1626
19.122
19.0818
19.0462
19.0093
18.9688
18.9296
18.8915
18.8541
18.8187
18.7841
18.7475
18.7079
18.6696
18.6335
18.5964
18.5585
18.5097
18.458
18.3983
18.332
18.242
18.1213
17.929
17.6244
17.0897
16.1264
14.3456
10.5953
19.9365
19.8598
19.8184
19.7889
19.7546
19.7193
19.6867
19.6509
19.6132
19.5773
19.5431
19.5109
19.4783
19.4478
19.4166
19.3805
19.343
19.3079
19.2709
19.2347
19.1982
19.1637
19.123
19.0805
19.0402
19.0045
18.9695
18.9344
18.8964
18.8567
18.8179
18.7823
18.7481
18.7154
18.6776
18.6404
18.6027
18.5676
18.5328
18.4987
18.47
18.4554
18.4606
18.5077
18.6093
18.8316
19.1987
19.855
20.7495
22.0664
19.9321
19.8523
19.8142
19.7878
19.7538
19.7191
19.6829
19.6457
19.6143
19.5798
19.5453
19.5112
19.4767
19.4485
19.4186
19.3811
19.3441
19.3043
19.2671
19.2361
19.2024
19.1646
19.1238
19.0816
19.0404
19.0025
18.9672
18.9347
18.894
18.8525
18.8184
18.7854
18.7507
18.7137
18.676
18.6392
18.5992
18.5619
18.529
18.492
18.4583
18.4312
18.4216
18.4287
18.4856
18.6042
18.8553
19.2654
19.9006
20.6699
19.9308
19.8531
19.8154
19.7847
19.752
19.7229
19.6896
19.6487
19.6133
19.577
19.5428
19.5125
19.4793
19.4479
19.4168
19.3856
19.35
19.3098
19.2696
19.2335
19.1992
19.1605
19.1218
19.0821
19.0407
19.0042
18.9707
18.9357
18.8942
18.8539
18.8186
18.7819
18.7464
18.7087
18.6714
18.6382
18.597
18.557
18.5217
18.4791
18.4363
18.3963
18.3543
18.3109
18.2683
18.2287
18.1861
18.2213
18.2394
18.5487
19.9317
19.8542
19.8121
19.782
19.7532
19.7221
19.6842
19.6465
19.6155
19.5834
19.5477
19.5144
19.481
19.4467
19.413
19.3786
19.3425
19.3092
19.2734
19.2357
19.1989
19.1602
19.1214
19.0815
19.0419
19.0041
18.9666
18.9329
18.8955
18.8546
18.8163
18.7797
18.7448
18.712
18.6735
18.6336
18.5935
18.5539
18.5123
18.4659
18.4189
18.3571
18.2867
18.1924
18.0577
17.8375
17.5111
16.9367
16.19
15.2406
19.9314
19.8575
19.8198
19.7918
19.7571
19.7204
19.6828
19.6465
19.6131
19.5809
19.5482
19.5155
19.4832
19.4486
19.4139
19.3789
19.3436
19.3081
19.2718
19.2348
19.1973
19.1614
19.1217
19.0814
19.0441
19.0062
18.9686
18.933
18.894
18.8537
18.8159
18.7805
18.7474
18.7106
18.6723
18.6341
18.5947
18.5523
18.5078
18.4614
18.3999
18.3327
18.2432
18.1228
17.9293
17.6271
17.0968
16.1399
14.3639
10.6317
19.9367
19.8642
19.8245
19.7953
19.7591
19.7218
19.6866
19.6506
19.6143
19.5795
19.5455
19.5122
19.48
19.4482
19.4154
19.3804
19.3439
19.3078
19.2717
19.2361
19.1998
19.1622
19.1216
19.0809
19.0422
19.0062
18.9708
18.9342
18.8947
18.8549
18.8176
18.7826
18.7478
18.7133
18.6767
18.6402
18.6025
18.5654
18.5299
18.4975
18.4708
18.4576
18.4627
18.5083
18.6136
18.8341
19.2236
19.9009
20.8327
22.1174
19.9311
19.8577
19.8204
19.7918
19.756
19.719
19.6856
19.6491
19.6129
19.5794
19.5457
19.5108
19.4782
19.4466
19.4152
19.3812
19.3455
19.3072
19.2704
19.2364
19.2015
19.1628
19.1221
19.0795
19.0402
19.0042
18.9717
18.9364
18.8949
18.852
18.8164
18.7811
18.7475
18.7125
18.6781
18.6422
18.6025
18.5611
18.526
18.4911
18.4601
18.4325
18.4243
18.4287
18.4899
18.6033
18.8776
19.3021
19.9919
20.7964
19.9305
19.8586
19.8202
19.7881
19.7554
19.7232
19.6896
19.6511
19.613
19.5774
19.5445
19.513
19.4808
19.4482
19.4158
19.3821
19.3486
19.3118
19.2723
19.2351
19.2003
19.1617
19.122
19.0815
19.0415
19.0063
18.9709
18.9355
18.8937
18.8526
18.818
18.7819
18.7457
18.7096
18.6733
18.6389
18.6012
18.5591
18.5187
18.478
18.4367
18.3963
18.3508
18.3126
18.2627
18.2364
18.1948
18.2581
18.314
18.6851
19.9304
19.8573
19.8174
19.7871
19.7556
19.7218
19.6868
19.6509
19.6146
19.5793
19.5458
19.515
19.4828
19.4488
19.4146
19.3799
19.3439
19.3069
19.2706
19.2359
19.2019
19.162
19.1218
19.0816
19.0422
19.0048
18.9684
18.9337
18.8933
18.8525
18.8156
18.7806
18.748
18.7129
18.6735
18.6362
18.5965
18.5553
18.5128
18.466
18.4163
18.3562
18.2861
18.1943
18.0591
17.8535
17.5181
16.9758
16.2274
15.4039
19.9353
19.863
19.8247
19.7948
19.7598
19.7227
19.6863
19.6502
19.6154
19.5812
19.5479
19.5159
19.4832
19.4488
19.414
19.3791
19.3435
19.3078
19.2719
19.2355
19.1989
19.1611
19.122
19.0822
19.0437
19.0064
18.9695
18.9327
18.8934
18.8535
18.8167
18.782
18.7478
18.7109
18.6723
18.6339
18.5941
18.5518
18.507
18.4591
18.3991
18.3312
18.2412
18.1227
17.9297
17.6309
17.1043
16.1579
14.375
10.6146
23.2504
23.2769
23.2381
23.3703
23.9367
21.779
22.4457
22.9923
23.4527
24.3017
18.8868
20.0155
21.7034
23.003
24.4263
15.0286
16.208
19.2104
20.9677
22.8378
3.93816
8.9697
14.7628
17.101
19.0434
23.2787
23.3101
23.2668
23.4389
23.9466
21.5258
22.1456
22.8889
23.7304
24.7535
18.7017
19.6842
21.5715
23.5531
25.4402
14.9419
15.8723
19.0007
21.5577
23.9623
4.21067
8.05629
14.2223
17.6546
20.0742
23.285
23.3148
23.2827
23.4775
23.9937
21.4621
22.1065
22.9511
23.9782
24.9926
18.6526
19.6647
21.6951
23.9363
25.8804
14.9118
15.8534
19.1743
22.0432
24.3533
4.21799
7.80779
14.2462
18.1505
20.3766
23.2657
23.2914
23.2624
23.4598
23.9662
21.5207
22.1333
22.9018
23.778
24.7867
18.7148
19.6982
21.5818
23.5754
25.4499
14.9624
15.9062
19.0585
21.6106
23.9658
4.37148
8.10946
14.2185
17.6909
20.0957
23.2368
23.2574
23.2361
23.4031
23.9612
21.7494
22.4042
23.008
23.5274
24.3561
18.8811
20.0153
21.7323
23.0588
24.4771
15.0504
16.2233
19.2636
21.0147
22.8609
4.09927
9.03126
14.7577
17.1375
19.0858
23.6792
23.6792
23.6792
23.6792
23.6792
23.6792
23.6792
23.6792
23.6792
23.6792
23.6792
23.6792
23.6792
23.6792
23.6792
23.6792
23.6792
23.6792
23.6792
23.6792
23.6792
23.6792
23.6792
23.6792
23.6792
23.6792
23.6792
23.6792
23.6792
23.6792
23.6792
23.6792
23.6792
23.6792
23.6792
23.6792
23.6792
23.6792
23.6792
23.6792
23.6792
23.6792
23.6792
23.6792
23.6792
23.6792
23.6792
23.6792
23.6792
23.6792
23.6792
23.6792
23.6792
23.6792
23.6792
23.6792
23.6792
23.6792
23.6792
23.6792
23.6792
23.6792
23.6792
23.6792
23.6792
23.6792
23.6792
23.6792
23.6792
23.6792
23.6792
23.6792
23.6792
23.6792
23.6792
23.6792
23.6792
23.6792
23.6792
23.6792
23.6792
23.6792
23.6792
23.6792
23.6792
23.6792
23.6792
23.6792
23.6792
23.6792
23.6792
23.6792
23.6792
23.6792
23.6792
23.6792
23.6792
23.6792
23.6792
23.6792
23.6792
23.6792
23.6792
23.6792
23.6792
23.6792
23.6792
23.6792
23.6792
23.6792
23.6792
23.6792
23.6792
23.6792
23.6792
23.6792
23.6792
23.6792
23.6792
23.6792
23.6792
23.6792
23.6792
23.6792
23.6792
23.6792
23.6792
23.6792
23.6792
23.6792
23.6792
23.6792
23.6792
23.6792
23.6792
23.6792
23.6792
23.6792
23.6792
23.6793
23.6792
23.6792
23.6792
23.6793
23.6793
23.6792
23.6792
23.6793
23.6793
23.6793
23.6791
23.6792
23.6793
23.6794
23.6794
23.6791
23.6792
23.6794
23.6795
23.6796
23.6789
23.6792
23.6795
23.6798
23.6799
23.6787
23.6791
23.6798
23.6803
23.6805
23.6782
23.679
23.6803
23.6813
23.6815
23.6771
23.6787
23.6814
23.683
23.6831
23.6745
23.6776
23.6829
23.6857
23.6851
23.6678
23.6734
23.6817
23.6858
23.6823
23.6496
23.6515
23.6582
23.6707
23.6672
23.6025
23.589
23.5892
23.6232
23.6377
23.5272
23.4945
23.4839
23.5304
23.5724
23.4291
23.3807
23.3487
23.3809
23.4559
23.3239
23.2673
23.2079
23.2132
23.3218
23.2335
23.1779
23.1256
23.0867
23.2217
23.1774
23.1255
23.0898
23.0256
23.177
23.1566
23.1159
23.0985
23.0469
23.1741
23.1732
23.1464
23.145
23.1085
23.1954
23.2174
23.1986
23.1965
23.1593
23.2363
23.2653
23.2468
23.235
23.192
23.3166
23.3065
23.2872
23.2547
23.2226
23.5278
23.6792
23.6792
23.6792
23.6792
23.6792
23.6792
23.6792
23.6792
23.6792
23.6792
23.6792
23.6792
23.6792
23.6792
23.6792
23.6792
23.6792
23.6792
23.6792
23.6792
23.6792
23.6792
23.6792
23.6792
23.6792
23.6792
23.6792
23.6792
23.6792
23.6792
23.6792
23.6792
23.6792
23.6792
23.6792
23.6792
23.6792
23.6792
23.6792
23.6792
23.6792
23.6792
23.6792
23.6792
23.6792
23.6792
23.6792
23.6792
23.6792
23.6792
23.6792
23.6792
23.6792
23.6792
23.6792
23.6792
23.6792
23.6792
23.6792
23.6792
23.6792
23.6792
23.6792
23.6792
23.6792
23.6792
23.6792
23.6792
23.6792
23.6792
23.6792
23.6792
23.6792
23.6792
23.6792
23.6792
23.6792
23.6792
23.6792
23.6792
23.6792
23.6792
23.6792
23.6792
23.6792
23.6792
23.6792
23.6792
23.6792
23.6792
23.6792
23.6792
23.6792
23.6792
23.6792
23.6792
23.6792
23.6792
23.6792
23.6792
23.6792
23.6792
23.6792
23.6792
23.6792
23.6792
23.6792
23.6792
23.6792
23.6792
23.6792
23.6792
23.6792
23.6792
23.6792
23.6792
23.6792
23.6792
23.6792
23.6792
23.6792
23.6792
23.6792
23.6792
23.6792
23.6792
23.6792
23.6792
23.6792
23.6792
23.6792
23.6792
23.6792
23.6792
23.6792
23.6792
23.6792
23.6792
23.6792
23.6792
23.6792
23.6792
23.6792
23.6793
23.6793
23.6792
23.6792
23.6792
23.6793
23.6793
23.6791
23.6791
23.6792
23.6793
23.6794
23.679
23.6791
23.6792
23.6794
23.6794
23.6787
23.6789
23.6792
23.6794
23.6795
23.6783
23.6786
23.6791
23.6795
23.6796
23.6774
23.678
23.6788
23.6794
23.6795
23.6754
23.6765
23.6781
23.679
23.6789
23.6711
23.6729
23.6755
23.6768
23.6762
23.6607
23.6632
23.6668
23.6671
23.6643
23.6369
23.6354
23.6304
23.6359
23.6412
23.5892
23.5783
23.5772
23.6075
23.6248
23.5177
23.4966
23.4928
23.5383
23.5782
23.4264
23.3942
23.3665
23.3887
23.4655
23.3279
23.2828
23.229
23.2176
23.3249
23.2383
23.187
23.1321
23.0816
23.2105
23.177
23.1232
23.078
23.0129
23.1387
23.1492
23.1037
23.0627
22.9996
23.1138
23.1614
23.123
23.0912
23.03
23.1329
23.2085
23.1763
23.1552
23.0854
23.1938
23.2655
23.2408
23.2187
23.1593
23.2867
23.3267
23.2941
23.2588
23.2122
23.457
23.6792
23.6792
23.6792
23.6792
23.6792
23.6792
23.6792
23.6792
23.6792
23.6792
23.6792
23.6792
23.6792
23.6792
23.6792
23.6792
23.6792
23.6792
23.6792
23.6792
23.6792
23.6792
23.6792
23.6792
23.6792
23.6792
23.6792
23.6792
23.6792
23.6792
23.6792
23.6792
23.6792
23.6792
23.6792
23.6792
23.6792
23.6792
23.6792
23.6792
23.6792
23.6792
23.6792
23.6792
23.6792
23.6792
23.6792
23.6792
23.6792
23.6792
23.6792
23.6792
23.6792
23.6792
23.6792
23.6792
23.6792
23.6792
23.6792
23.6792
23.6792
23.6792
23.6792
23.6792
23.6792
23.6792
23.6792
23.6792
23.6792
23.6792
23.6792
23.6792
23.6792
23.6792
23.6792
23.6792
23.6792
23.6792
23.6792
23.6792
23.6792
23.6792
23.6792
23.6792
23.6792
23.6792
23.6792
23.6792
23.6792
23.6792
23.6792
23.6792
23.6792
23.6792
23.6792
23.6792
23.6792
23.6792
23.6792
23.6792
23.6792
23.6792
23.6792
23.6792
23.6792
23.6792
23.6792
23.6792
23.6792
23.6792
23.6792
23.6792
23.6792
23.6792
23.6792
23.6792
23.6792
23.6792
23.6792
23.6792
23.6792
23.6792
23.6792
23.6792
23.6792
23.6792
23.6792
23.6792
23.6792
23.6792
23.6792
23.6792
23.6792
23.6792
23.6792
23.6792
23.6792
23.6792
23.6792
23.6792
23.6792
23.6792
23.6792
23.6793
23.6793
23.6791
23.6792
23.6792
23.6793
23.6793
23.6791
23.6792
23.6793
23.6793
23.6794
23.679
23.6791
23.6793
23.6795
23.6796
23.6788
23.679
23.6794
23.6797
23.6799
23.6784
23.6789
23.6795
23.6802
23.6804
23.6777
23.6785
23.6798
23.681
23.6814
23.676
23.6775
23.68
23.6824
23.6828
23.6724
23.6749
23.6792
23.6839
23.6842
23.6631
23.6668
23.6738
23.6822
23.6816
23.6415
23.6437
23.6497
23.6637
23.6688
23.5977
23.594
23.5986
23.6206
23.6388
23.528
23.5124
23.5085
23.53
23.572
23.4368
23.4065
23.3799
23.3939
23.468
23.3357
23.2888
23.2454
23.2377
23.348
23.2417
23.187
23.1453
23.1095
23.2404
23.1774
23.119
23.0871
23.0405
23.1684
23.1492
23.0956
23.0702
23.0218
23.1405
23.1612
23.117
23.0913
23.0485
23.1581
23.2082
23.1737
23.1518
23.114
23.2103
23.2662
23.2406
23.2191
23.183
23.2866
23.3286
23.2937
23.2565
23.2129
23.443
23.6792
23.6792
23.6792
23.6792
23.6792
23.6792
23.6792
23.6792
23.6792
23.6792
23.6792
23.6792
23.6792
23.6792
23.6792
23.6792
23.6792
23.6792
23.6792
23.6792
23.6792
23.6792
23.6792
23.6792
23.6792
23.6792
23.6792
23.6792
23.6792
23.6792
23.6792
23.6792
23.6792
23.6792
23.6792
23.6792
23.6792
23.6792
23.6792
23.6792
23.6792
23.6792
23.6792
23.6792
23.6792
23.6792
23.6792
23.6792
23.6792
23.6792
23.6792
23.6792
23.6792
23.6792
23.6792
23.6792
23.6792
23.6792
23.6792
23.6792
23.6792
23.6792
23.6792
23.6792
23.6792
23.6792
23.6792
23.6792
23.6792
23.6792
23.6792
23.6792
23.6792
23.6792
23.6792
23.6792
23.6792
23.6792
23.6792
23.6792
23.6792
23.6792
23.6792
23.6792
23.6792
23.6792
23.6792
23.6792
23.6792
23.6792
23.6792
23.6792
23.6792
23.6792
23.6792
23.6792
23.6792
23.6792
23.6792
23.6792
23.6792
23.6792
23.6792
23.6792
23.6792
23.6792
23.6792
23.6792
23.6792
23.6792
23.6792
23.6792
23.6792
23.6792
23.6792
23.6792
23.6792
23.6792
23.6792
23.6792
23.6792
23.6792
23.6792
23.6792
23.6792
23.6792
23.6792
23.6792
23.6792
23.6792
23.6792
23.6792
23.6792
23.6792
23.6792
23.6792
23.6792
23.6792
23.6792
23.6792
23.6792
23.6792
23.6792
23.6792
23.6792
23.6791
23.6791
23.6792
23.6792
23.6793
23.679
23.6791
23.6792
23.6792
23.6793
23.6789
23.679
23.6791
23.6792
23.6793
23.6786
23.6787
23.679
23.6792
23.6793
23.678
23.6783
23.6787
23.6791
23.6793
23.6768
23.6774
23.6781
23.6787
23.6789
23.6745
23.6755
23.6769
23.6777
23.6779
23.6697
23.6714
23.6739
23.6753
23.6753
23.6592
23.6615
23.6652
23.6663
23.6652
23.6366
23.6383
23.6384
23.6413
23.6419
23.5925
23.5849
23.5804
23.6056
23.6187
23.5207
23.4986
23.4938
23.5422
23.5772
23.4268
23.3895
23.3671
23.3951
23.4728
23.3251
23.2729
23.2305
23.2218
23.332
23.2332
23.1723
23.1317
23.0903
23.2127
23.1708
23.1049
23.0759
23.0251
23.1415
23.1435
23.0866
23.0588
23.0132
23.1178
23.1554
23.1111
23.089
23.0392
23.1354
23.2013
23.1676
23.1517
23.089
23.193
23.2578
23.2306
23.2106
23.1552
23.2838
23.3188
23.2827
23.249
23.2118
23.4701
23.6792
23.6792
23.6792
23.6792
23.6792
23.6792
23.6792
23.6792
23.6792
23.6792
23.6792
23.6792
23.6792
23.6792
23.6792
23.6792
23.6792
23.6792
23.6792
23.6792
23.6792
23.6792
23.6792
23.6792
23.6792
23.6792
23.6792
23.6792
23.6792
23.6792
23.6792
23.6792
23.6792
23.6792
23.6792
23.6792
23.6792
23.6792
23.6792
23.6792
23.6792
23.6792
23.6792
23.6792
23.6792
23.6792
23.6792
23.6792
23.6792
23.6792
23.6792
23.6792
23.6792
23.6792
23.6792
23.6792
23.6792
23.6792
23.6792
23.6792
23.6792
23.6792
23.6792
23.6792
23.6792
23.6792
23.6792
23.6792
23.6792
23.6792
23.6792
23.6792
23.6792
23.6792
23.6792
23.6792
23.6792
23.6792
23.6792
23.6792
23.6792
23.6792
23.6792
23.6792
23.6792
23.6792
23.6792
23.6792
23.6792
23.6792
23.6792
23.6792
23.6792
23.6792
23.6792
23.6792
23.6792
23.6792
23.6792
23.6792
23.6792
23.6792
23.6792
23.6792
23.6792
23.6792
23.6792
23.6792
23.6792
23.6792
23.6792
23.6792
23.6792
23.6792
23.6792
23.6792
23.6792
23.6792
23.6792
23.6792
23.6792
23.6792
23.6792
23.6792
23.6792
23.6792
23.6792
23.6792
23.6792
23.6792
23.6792
23.6792
23.6792
23.6792
23.6792
23.6792
23.6792
23.6792
23.6792
23.6792
23.6792
23.6792
23.6792
23.6792
23.6793
23.6791
23.6792
23.6792
23.6793
23.6793
23.679
23.6791
23.6792
23.6793
23.6793
23.6789
23.679
23.6792
23.6793
23.6794
23.6786
23.6788
23.6792
23.6794
23.6796
23.6782
23.6786
23.6791
23.6797
23.6799
23.6773
23.678
23.6792
23.6801
23.6804
23.6756
23.677
23.6792
23.6809
23.6813
23.6721
23.6748
23.6793
23.6826
23.6831
23.6645
23.6693
23.6783
23.6844
23.6841
23.6477
23.6547
23.6659
23.6766
23.6747
23.607
23.6019
23.6088
23.634
23.6416
23.531
23.5006
23.4922
23.5368
23.5755
23.4288
23.3743
23.3492
23.3902
23.4631
23.3197
23.2515
23.2076
23.2202
23.326
23.2268
23.1586
23.1203
23.0962
23.2254
23.1693
23.1064
23.0895
23.0442
23.1828
23.1497
23.1023
23.1018
23.0666
23.1817
23.1671
23.1371
23.1453
23.1203
23.1951
23.2089
23.1865
23.1854
23.1559
23.2294
23.2543
23.2324
23.2192
23.1829
23.3108
23.297
23.2743
23.2431
23.2247
23.5367
-16.9164
-2.15158
6.05673
10.388
13.3669
-14.7994
-10.4907
-2.8181
2.64527
6.39436
-14.26
-13.2657
-8.17004
-3.24875
-0.0674551
-14.356
-13.5982
-10.6523
-6.9251
-4.63085
-13.9292
-13.3488
-11.725
-9.02071
-7.38385
-13.0193
-12.6821
-11.9891
-10.0938
-8.92682
-11.8729
-11.6679
-11.6572
-10.4739
-9.68664
-11.0198
-10.777
-10.8899
-10.3461
-9.95729
-10.6571
-10.6563
-10.409
-10.2156
-9.98562
-10.3826
-10.5243
-10.196
-10.1911
-9.95576
-10.1416
-10.2965
-10.0047
-10.1456
-9.88933
-9.96491
-10.0604
-9.89287
-10.0822
-9.79651
-9.87587
-10.0419
-9.90978
-10.0205
-9.71597
-9.80859
-10.0158
-9.9506
-9.95906
-9.66711
-9.65149
-9.74383
-9.79507
-9.87025
-9.64027
-9.52206
-9.50049
-9.66818
-9.8133
-9.63216
-9.55112
-9.4432
-9.66147
-9.88166
-9.72415
-9.6669
-9.58584
-9.89781
-10.1345
-9.92938
-10.2464
-10.3367
-10.4691
-10.5352
-10.1918
-11.2263
-11.9686
-11.2929
-10.947
-10.3684
-12.0248
-13.2947
-11.625
-11.032
-10.1725
-11.7541
-12.6094
-10.7693
-10.3283
-9.4877
-10.0636
-10.324
-9.1164
-8.9843
-8.38111
-7.63117
-7.7379
-7.27233
-7.45739
-7.06912
-5.41694
-5.57998
-5.64208
-6.03771
-5.82338
-3.89596
-4.13839
-4.46645
-4.91957
-4.83461
-3.10284
-3.30279
-3.70117
-4.18248
-4.25802
-2.76128
-2.9136
-3.29322
-3.77725
-3.93947
-2.56149
-2.64862
-3.24504
-3.72019
-3.8413
-2.57573
-2.69643
-3.60276
-3.9645
-3.98977
-3.32815
-3.52111
-4.30204
-4.48376
-4.33976
-4.59388
-5.03709
-5.39386
-5.07843
-4.77964
-5.81836
-6.73548
-6.12598
-5.45857
-5.0413
-6.18128
-6.99967
-5.84445
-5.27648
-4.7485
-5.33568
-5.65943
-4.75523
-4.49559
-4.04081
-3.83227
-3.9051
-3.51826
-3.55202
-3.2549
-2.40769
-2.48308
-2.49291
-2.67788
-2.49884
-1.43252
-1.54004
-1.73098
-1.9653
-1.85916
-0.838607
-0.950248
-1.1826
-1.41805
-1.35101
-0.467288
-0.573699
-0.793254
-1.00883
-0.959418
-0.234889
-0.332143
-0.52088
-0.705549
-0.662151
-0.0902141
-0.173746
-0.330418
-0.483285
-0.442346
-4.94528e-05
-0.0708297
-0.198385
-0.321848
-0.280888
0.0534943
-0.00573528
-0.107809
-0.206427
-0.166605
0.0804167
0.0303297
-0.0493061
-0.127548
-0.0868085
0.0900096
0.0463251
-0.0129066
-0.0757273
-0.0354282
0.0866963
0.0474428
0.00497187
-0.0453489
-0.00372302
0.0768992
0.0397002
0.0133452
-0.0274611
0.0120853
0.0591324
0.0243963
0.0116974
-0.0225951
0.0169263
0.0436238
0.00858937
0.0138505
-0.0220525
0.0174858
-15.8693
-5.28565
4.83168
10.8279
14.3731
-14.645
-12.9981
-3.95626
2.92473
7.12784
-14.7513
-13.6437
-8.35148
-3.04348
0.504343
-14.5052
-13.6181
-10.6018
-6.85799
-4.15506
-13.8937
-13.2869
-11.7104
-9.0499
-7.128
-12.9884
-12.698
-11.977
-10.1548
-8.87312
-11.9519
-11.8307
-11.6977
-10.5266
-9.77789
-11.1474
-11.0375
-11.1363
-10.4883
-10.097
-10.7027
-10.7512
-10.6945
-10.3536
-10.1478
-10.457
-10.8215
-10.4476
-10.2864
-10.1201
-10.1861
-10.7319
-10.2931
-10.254
-10.062
-9.96542
-10.3527
-10.099
-10.1756
-9.97713
-9.89448
-10.0829
-9.94963
-10.0705
-9.87748
-9.88236
-9.96231
-9.84626
-9.96834
-9.7906
-9.72619
-9.75943
-9.70231
-9.84979
-9.73878
-9.57973
-9.554
-9.52017
-9.79147
-9.73759
-9.57338
-9.5553
-9.45535
-9.87705
-9.82992
-9.64132
-9.76143
-9.77619
-10.1834
-10.0493
-10.2189
-10.5919
-10.476
-10.6814
-10.3633
-11.2553
-12.2641
-11.6029
-11.1872
-10.621
-12.1286
-13.647
-12.0383
-11.2912
-10.553
-11.8043
-12.9594
-11.1847
-10.6129
-9.85399
-10.1826
-10.5731
-9.29427
-9.22201
-8.63302
-7.73142
-7.82098
-7.2157
-7.59891
-7.24859
-5.44047
-5.45249
-5.43806
-6.08136
-5.93241
-3.91253
-3.9184
-4.23143
-4.8878
-4.87959
-3.12553
-3.18643
-3.50451
-4.08805
-4.25084
-2.81302
-2.92497
-3.12706
-3.65157
-3.9115
-2.57947
-2.72469
-3.18834
-3.62641
-3.79573
-2.6935
-2.79543
-3.66946
-4.005
-4.02572
-3.46974
-3.67833
-4.63189
-4.77387
-4.46775
-4.69004
-5.33488
-6.02082
-5.47489
-4.9899
-5.92661
-6.86791
-6.57861
-5.84892
-5.35864
-6.17286
-6.86387
-6.13197
-5.53645
-5.05263
-5.3035
-5.50096
-4.89002
-4.62196
-4.23614
-3.75392
-3.77892
-3.56758
-3.61689
-3.39629
-2.41714
-2.43633
-2.50124
-2.71295
-2.60956
-1.46248
-1.53694
-1.72897
-1.98724
-1.94917
-0.87972
-0.975492
-1.1892
-1.43308
-1.42653
-0.52731
-0.620936
-0.813157
-1.0218
-1.0262
-0.308767
-0.391354
-0.546984
-0.718607
-0.723101
-0.167222
-0.234558
-0.357757
-0.49659
-0.497727
-0.0685583
-0.128666
-0.223553
-0.335679
-0.331067
-0.00394819
-0.0601453
-0.13229
-0.217703
-0.212307
0.0317666
-0.0231971
-0.0713967
-0.137903
-0.129131
0.0487239
-0.00739768
-0.0322108
-0.0864868
-0.073865
0.052335
-0.00805319
-0.0122145
-0.0558144
-0.0395664
0.0477521
-0.0176706
-0.00251569
-0.0378946
-0.0201055
0.0383978
-0.0327234
-0.00134473
-0.0320627
-0.0147062
0.0320535
-0.0504179
-0.000677107
-0.0437919
-0.0167707
-15.7189
-5.65528
4.73267
11.1786
14.5562
-14.4621
-12.9268
-3.73777
3.37705
7.2056
-14.5909
-13.3902
-8.05348
-2.66087
0.596697
-14.3331
-13.4427
-10.4388
-6.58203
-4.05011
-13.7515
-13.2411
-11.6518
-8.83656
-7.04157
-12.9759
-12.8351
-11.9966
-9.92955
-8.82073
-12.1104
-12.2035
-11.716
-10.3016
-9.71085
-11.3003
-11.4243
-11.1337
-10.2714
-10.0101
-10.7009
-10.7904
-10.5918
-10.0861
-10.0116
-10.2916
-10.4504
-10.2285
-9.92969
-9.92244
-9.93716
-9.95801
-9.91406
-9.78324
-9.81243
-9.76129
-9.74453
-9.69396
-9.64635
-9.6939
-9.74682
-9.78357
-9.59935
-9.58158
-9.60404
-9.75017
-9.79856
-9.57343
-9.55285
-9.5535
-9.61192
-9.59704
-9.43049
-9.47246
-9.51716
-9.47288
-9.26177
-9.07638
-9.4015
-9.52179
-9.49668
-9.321
-8.85102
-9.52308
-9.57911
-9.70698
-9.81879
-9.45261
-10.0095
-9.8893
-10.3205
-10.7305
-10.5589
-10.6677
-10.299
-11.3778
-12.2816
-11.9046
-11.2459
-10.5967
-12.2538
-13.5442
-12.4532
-11.2871
-10.5711
-11.909
-12.9497
-11.573
-10.5783
-9.86244
-10.2929
-10.65
-9.47344
-9.10205
-8.59742
-7.77056
-7.82934
-7.20406
-7.40775
-7.17603
-5.3817
-5.37204
-5.29416
-5.85183
-5.81954
-3.73705
-3.64951
-4.01169
-4.64411
-4.73516
-2.8956
-2.79536
-3.25417
-3.81959
-4.09711
-2.65781
-2.54322
-2.688
-3.33451
-3.69887
-2.79771
-2.67216
-2.62764
-3.34255
-3.62987
-3.25616
-3.14809
-3.37037
-3.93888
-3.94128
-4.14609
-4.18475
-4.73916
-4.95082
-4.45543
-5.16011
-5.77763
-6.32604
-5.67722
-5.03976
-6.13631
-7.0327
-6.79708
-5.96739
-5.35961
-6.17265
-6.83655
-6.1716
-5.52002
-4.96198
-5.20366
-5.39208
-4.78846
-4.50621
-4.13896
-3.65869
-3.67526
-3.44004
-3.49213
-3.29339
-2.31773
-2.35006
-2.40159
-2.59602
-2.51523
-1.44111
-1.47999
-1.62945
-1.88383
-1.86719
-0.86219
-0.933359
-1.10255
-1.34624
-1.35466
-0.518423
-0.594789
-0.742067
-0.94824
-0.963677
-0.306341
-0.374781
-0.488945
-0.653485
-0.666771
-0.163157
-0.221342
-0.309557
-0.436774
-0.446142
-0.0628096
-0.115986
-0.181337
-0.278499
-0.283688
0.0043631
-0.0473251
-0.0906118
-0.166569
-0.167973
0.0398075
-0.00454952
-0.0328817
-0.0905236
-0.0863161
0.0568474
0.0153122
0.00250487
-0.0431728
-0.0344343
0.0612021
0.019948
0.017974
-0.0151412
-0.00193889
0.0547768
0.010986
0.0268225
-0.00187098
0.0133665
0.0430945
-0.00305947
0.0273421
5.08099e-05
0.0187178
0.0327984
-0.0126196
0.0290012
-0.00632052
0.0213899
-15.4911
-4.74835
4.86128
10.7462
14.3521
-14.4013
-12.2891
-3.84236
2.92511
7.10903
-14.4351
-13.1946
-8.5415
-3.11985
0.45972
-14.2609
-13.5465
-11.0617
-7.00481
-4.25205
-13.7952
-13.5405
-12.2965
-9.23399
-7.2786
-13.1605
-13.311
-12.6153
-10.3309
-9.05524
-12.4121
-12.8221
-12.2338
-10.6859
-9.96251
-11.6026
-11.8806
-11.4549
-10.6222
-10.2421
-10.7426
-10.789
-10.6615
-10.3676
-10.1941
-10.0732
-10.0116
-10.1328
-10.1343
-10.0377
-9.64853
-9.50043
-9.77598
-9.93454
-9.89499
-9.50608
-9.27052
-9.48051
-9.77914
-9.76774
-9.57654
-9.45545
-9.37289
-9.72186
-9.67436
-9.59821
-9.56759
-9.38998
-9.71796
-9.62087
-9.52118
-9.55833
-9.35313
-9.70585
-9.59229
-9.40983
-9.41997
-9.13073
-9.66788
-9.61637
-9.41034
-9.32664
-8.96159
-9.80766
-9.72169
-9.6768
-9.71899
-9.59353
-10.2417
-10.0433
-10.3565
-10.6929
-10.758
-10.9955
-10.4526
-11.489
-12.3894
-12.2595
-11.6234
-10.8036
-12.3839
-13.651
-12.9139
-11.6152
-10.7895
-11.9968
-12.9596
-11.9852
-10.861
-10.1371
-10.3187
-10.6284
-9.77474
-9.31278
-8.80432
-7.75453
-7.79568
-7.36656
-7.57156
-7.32502
-5.33836
-5.29299
-5.37787
-5.98726
-5.9338
-3.66783
-3.65073
-4.07009
-4.76879
-4.83906
-2.8404
-2.8794
-3.31089
-3.96434
-4.20388
-2.67911
-2.67663
-2.86186
-3.55611
-3.87498
-3.13432
-2.90789
-2.83957
-3.62403
-3.78874
-3.92378
-3.63222
-3.6147
-4.1686
-4.05919
-4.61255
-4.79445
-5.0822
-5.02521
-4.56703
-5.34893
-6.04352
-6.28262
-5.63807
-5.05246
-6.05288
-7.11802