/*--------------------------------*- C++ -*----------------------------------*\
| =========                 |                                                 |
| \\      /  F ield         | OpenFOAM: The Open Source CFD Toolbox           |
|  \\    /   O peration     | Version:  2.1.x                                 |
|   \\  /    A nd           | Web:      www.OpenFOAM.org                      |
|    \\/     M anipulation  |                                                 |
\*---------------------------------------------------------------------------*/
FoamFile
{
    version     2.0;
    format      ascii;
    class       surfaceScalarField;
    location    "0.3";
    object      phi;
}
// * * * * * * * * * * * * * * * * * * * * * * * * * * * * * * * * * * * * * //

dimensions      [0 3 -1 0 0 0 0];

internalField   nonuniform List<scalar> 
10050
(
7.39334e-05
5.51483e-09
7.75982e-09
7.38983e-05
1.5504e-08
1.95758e-08
7.38479e-05
2.84159e-08
2.19483e-08
7.37628e-05
4.41995e-08
4.08812e-08
7.36601e-05
5.2918e-08
4.98055e-08
7.35591e-05
5.02042e-08
5.08046e-08
7.34593e-05
5.40138e-08
4.5796e-08
7.33625e-05
5.63627e-08
4.0384e-08
7.32666e-05
5.58551e-08
4.00784e-08
7.31682e-05
5.01013e-08
4.82835e-08
7.30716e-05
4.56126e-08
5.10207e-08
7.29758e-05
4.83884e-08
4.74087e-08
7.28789e-05
5.39422e-08
4.29971e-08
7.27793e-05
4.94066e-08
5.02133e-08
7.26788e-05
4.27865e-08
5.77155e-08
7.25892e-05
2.88447e-08
6.06883e-08
7.25005e-05
4.15041e-08
4.71883e-08
7.24083e-05
4.07545e-08
5.14834e-08
7.23157e-05
4.67112e-08
4.59182e-08
7.22251e-05
3.99963e-08
5.06282e-08
7.21333e-05
4.16553e-08
5.01031e-08
7.20411e-05
3.86112e-08
5.36082e-08
7.19434e-05
5.33095e-08
4.43842e-08
7.18501e-05
3.92515e-08
5.39854e-08
7.17507e-05
5.68358e-08
4.26048e-08
7.16548e-05
5.10391e-08
4.48432e-08
7.15539e-05
6.38867e-08
3.70553e-08
7.14533e-05
5.22908e-08
4.83084e-08
7.13513e-05
6.68919e-08
3.50841e-08
7.12511e-05
4.92356e-08
5.09274e-08
7.11363e-05
6.58926e-08
4.89786e-08
7.10283e-05
5.2445e-08
5.54828e-08
7.09238e-05
6.15965e-08
4.29366e-08
7.08238e-05
4.09934e-08
5.90002e-08
7.07147e-05
6.03382e-08
4.87782e-08
7.06147e-05
4.09972e-08
5.89997e-08
7.05029e-05
7.13282e-08
4.04771e-08
7.03889e-05
6.65715e-08
4.74067e-08
7.02595e-05
1.0296e-07
2.64444e-08
7.01317e-05
8.51361e-08
4.26574e-08
6.99604e-05
1.43366e-07
2.79739e-08
6.97319e-05
1.66051e-07
6.24388e-08
6.9364e-05
3.48895e-07
1.9034e-08
6.88384e-05
4.43457e-07
8.20783e-08
6.78506e-05
9.72687e-07
1.51701e-08
6.64288e-05
1.27367e-06
1.48083e-07
6.37321e-05
2.61083e-06
8.58638e-08
5.96267e-05
3.74443e-06
3.61048e-07
5.19739e-05
7.14461e-06
5.08114e-07
1.08536e-05
9.3198e-07
4.01883e-05
7.75537e-05
5.44335e-09
8.55138e-09
7.75408e-05
7.21026e-09
2.11036e-08
7.75247e-05
1.12203e-08
3.32999e-08
7.75222e-05
1.72695e-08
2.9418e-08
7.75165e-05
1.78226e-08
4.08417e-08
7.75177e-05
1.15608e-08
3.74119e-08
7.75442e-05
5.47659e-09
2.20532e-08
7.75741e-05
5.01642e-09
2.13986e-08
7.75958e-05
8.87109e-09
2.53104e-08
7.76098e-05
1.56274e-08
2.05239e-08
7.76211e-05
1.65491e-08
1.77245e-08
7.76231e-05
1.40372e-08
3.23315e-08
7.76183e-05
1.37616e-08
4.50407e-08
7.7608e-05
1.80639e-08
4.16475e-08
7.75904e-05
1.91505e-08
4.11921e-08
7.7556e-05
1.93334e-08
4.39328e-08
7.75378e-05
2.11316e-08
3.85695e-08
7.75372e-05
1.69524e-08
2.43694e-08
7.75436e-05
1.98248e-08
2.04918e-08
7.75302e-05
2.6997e-08
2.64236e-08
7.74943e-05
3.38692e-08
4.37024e-08
7.74638e-05
2.31801e-08
4.58801e-08
7.74656e-05
7.53154e-09
4.40131e-08
7.74454e-05
1.45767e-08
4.49198e-08
7.74369e-05
1.80273e-08
4.72274e-08
7.74354e-05
1.74661e-08
3.51003e-08
7.74418e-05
2.54963e-08
3.20238e-08
7.74357e-05
2.37982e-08
3.4533e-08
7.74472e-05
2.67831e-08
2.86433e-08
7.74414e-05
2.9159e-08
2.58603e-08
7.74372e-05
3.00293e-08
4.00734e-08
7.74246e-05
2.28529e-08
4.22345e-08
7.74172e-05
2.28017e-08
4.62055e-08
7.7388e-05
2.43142e-08
4.57916e-08
7.73672e-05
3.53561e-08
4.58036e-08
7.73352e-05
3.59771e-08
3.69963e-08
7.73298e-05
3.90622e-08
3.7734e-08
7.73295e-05
4.06439e-08
2.61707e-08
7.73498e-05
5.87234e-08
2.3931e-08
7.73242e-05
9.84613e-08
1.23357e-08
7.72679e-05
1.58926e-07
4.06854e-08
7.7142e-05
2.77868e-07
1.41328e-08
7.69807e-05
4.40296e-07
6.99332e-08
7.66522e-05
7.962e-07
-2.42509e-08
7.62162e-05
1.31758e-06
9.11145e-08
7.51964e-05
2.33113e-06
-3.76929e-08
7.36799e-05
3.95807e-06
1.69211e-07
7.06788e-05
6.63945e-06
1.06113e-07
6.67063e-05
1.06136e-05
5.03514e-07
1.74135e-05
7.09653e-07
5.94368e-05
7.7456e-05
-7.1631e-09
5.74258e-09
7.74467e-05
-2.30191e-09
1.87741e-08
7.74255e-05
-1.97331e-09
3.44076e-08
7.74209e-05
-1.14076e-08
3.32727e-08
7.7431e-05
-1.35733e-08
2.13078e-08
7.74243e-05
-7.54606e-09
2.57982e-08
7.74077e-05
-1.07278e-08
3.27864e-08
7.74e-05
-2.16716e-08
3.43408e-08
7.73986e-05
-2.87091e-08
3.89951e-08
7.74016e-05
-3.01537e-08
4.27752e-08
7.74058e-05
-2.82797e-08
4.06623e-08
7.74006e-05
-1.99807e-08
3.92019e-08
7.73914e-05
-1.45222e-08
3.75612e-08
7.73959e-05
-1.52063e-08
2.87165e-08
7.74007e-05
-1.04888e-08
2.48262e-08
7.73941e-05
-9.93886e-09
3.58881e-08
7.74118e-05
-2.96388e-08
3.3052e-08
7.7442e-05
-3.85179e-08
2.53467e-08
7.74627e-05
-2.19897e-08
2.11008e-08
7.74766e-05
-9.87699e-09
2.29728e-08
7.74838e-05
-9.03286e-09
3.57243e-08
7.7479e-05
-5.21256e-09
3.31921e-08
7.74502e-05
-2.92842e-09
3.92232e-08
7.74318e-05
-7.14564e-09
4.01027e-08
7.74479e-05
-2.22496e-08
2.41826e-08
7.74758e-05
-2.62619e-08
1.58621e-08
7.75107e-05
-2.65884e-08
1.72006e-08
7.75218e-05
-1.96012e-08
3.23125e-08
7.75216e-05
-1.07861e-08
3.77373e-08
7.75254e-05
-7.9573e-09
3.3323e-08
7.75364e-05
-1.35733e-08
3.25759e-08
7.7546e-05
-2.11198e-08
3.43663e-08
7.75423e-05
-1.36627e-08
4.01922e-08
7.75326e-05
-4.17557e-09
3.81759e-08
7.75399e-05
2.82711e-09
2.52197e-08
7.75532e-05
4.50024e-09
1.81497e-08
7.75647e-05
8.02461e-09
1.95508e-08
7.75681e-05
1.42033e-08
2.30264e-08
7.75751e-05
2.88526e-08
2.29542e-08
7.75623e-05
7.18363e-08
3.93571e-08
7.75623e-05
1.22091e-07
3.6868e-08
7.75507e-05
2.30707e-07
5.87199e-08
7.75522e-05
4.24174e-07
1.46264e-08
7.75214e-05
7.74171e-07
5.28636e-08
7.75066e-05
1.35773e-06
-2.5372e-08
7.73793e-05
2.37144e-06
8.6983e-08
7.70692e-05
4.27539e-06
-7.17805e-09
7.63508e-05
7.16098e-06
1.96825e-07
7.38356e-05
1.29341e-05
1.94717e-07
1.92957e-05
6.8699e-07
7.12664e-05
7.73676e-05
-3.18473e-09
8.91635e-09
7.73603e-05
-1.76446e-08
2.25979e-08
7.73587e-05
-3.72948e-08
3.69318e-08
7.73638e-05
-4.54966e-08
2.9028e-08
7.73725e-05
-5.24709e-08
3.01366e-08
7.73862e-05
-5.06e-08
2.93618e-08
7.74018e-05
-5.20601e-08
2.56908e-08
7.7397e-05
-4.86659e-08
3.1834e-08
7.73832e-05
-4.97734e-08
3.49114e-08
7.73664e-05
-4.74198e-08
3.40578e-08
7.73443e-05
-4.62066e-08
4.00488e-08
7.73368e-05
-4.95599e-08
3.7004e-08
7.73464e-05
-5.0396e-08
2.63076e-08
7.73627e-05
-5.12566e-08
1.97157e-08
7.73797e-05
-4.78787e-08
2.04594e-08
7.73797e-05
-3.96024e-08
2.96097e-08
7.73355e-05
-3.06415e-08
4.52191e-08
7.72936e-05
-3.42451e-08
3.76691e-08
7.72891e-05
-4.63286e-08
2.88265e-08
7.7298e-05
-4.97384e-08
3.09903e-08
7.73011e-05
-4.99589e-08
3.77546e-08
7.73063e-05
-4.73045e-08
3.69514e-08
7.73128e-05
-4.27773e-08
3.32965e-08
7.73108e-05
-3.97409e-08
3.45964e-08
7.72724e-05
-3.85146e-08
5.46535e-08
7.72338e-05
-4.31993e-08
5.55644e-08
7.7214e-05
-4.50748e-08
3.82697e-08
7.71958e-05
-4.33082e-08
4.19921e-08
7.72047e-05
-5.50401e-08
3.53582e-08
7.72298e-05
-6.05824e-08
2.75182e-08
7.72403e-05
-5.70533e-08
3.29858e-08
7.72284e-05
-4.4482e-08
3.52501e-08
7.72275e-05
-4.19867e-08
2.92149e-08
7.72432e-05
-4.29936e-08
2.3044e-08
7.72665e-05
-4.72744e-08
2.68918e-08
7.72906e-05
-4.85091e-08
2.8892e-08
7.73208e-05
-4.49396e-08
2.2721e-08
7.73434e-05
-3.27376e-08
2.44055e-08
7.73709e-05
-2.20499e-08
2.33747e-08
7.73961e-05
1.9303e-08
2.73549e-08
7.74061e-05
6.82153e-08
4.3805e-08
7.74796e-05
1.11085e-07
4.61301e-08
7.76027e-05
2.60153e-07
4.09155e-08
7.78702e-05
4.61614e-07
4.5087e-08
7.82973e-05
8.89829e-07
4.08166e-08
7.91331e-05
1.45444e-06
8.12262e-08
8.05089e-05
2.82703e-06
7.24843e-08
8.27352e-05
4.78152e-06
1.53179e-07
8.47854e-05
1.06912e-05
1.92786e-07
2.0605e-05
4.86766e-07
8.29893e-05
7.40028e-05
8.07974e-09
7.39626e-05
2.25555e-08
7.39021e-05
2.3204e-08
7.38119e-05
4.46882e-08
7.3712e-05
4.74904e-08
7.36155e-05
4.58714e-08
7.35207e-05
4.27173e-08
7.34288e-05
4.32414e-08
7.33293e-05
4.97714e-08
7.32278e-05
5.40876e-08
7.3132e-05
4.95394e-08
7.30411e-05
4.14142e-08
7.29424e-05
4.83048e-08
7.28376e-05
5.35088e-08
7.27404e-05
4.93129e-08
7.26542e-05
4.66001e-08
7.25738e-05
4.97234e-08
7.24927e-05
4.68905e-08
7.23992e-05
4.71577e-08
7.23e-05
4.94491e-08
7.22063e-05
4.37763e-08
7.21176e-05
4.14328e-08
7.20262e-05
4.8612e-08
7.19308e-05
5.56565e-08
7.18327e-05
5.95194e-08
7.17398e-05
4.97219e-08
7.16492e-05
4.55503e-08
7.15544e-05
5.14879e-08
7.14493e-05
5.00376e-08
7.13452e-05
4.35372e-08
7.12362e-05
5.19209e-08
7.11339e-05
5.78581e-08
7.10343e-05
5.75568e-08
7.09363e-05
5.50849e-08
7.08417e-05
4.72936e-08
7.07466e-05
4.65665e-08
7.0653e-05
4.86738e-08
7.05748e-05
4.54716e-08
7.05068e-05
4.59937e-08
7.0502e-05
2.40799e-08
7.05463e-05
2.38846e-08
7.06152e-05
4.21793e-08
7.08394e-05
3.59269e-08
7.12685e-05
3.25323e-08
7.21343e-05
2.40578e-08
7.35393e-05
4.94255e-08
7.63654e-05
9.58315e-10
8.1014e-05
1.32945e-07
9.16735e-05
3.16827e-08
7.9012e-08
0.000112199
7.75626e-05
3.5146e-09
-3.03128e-09
7.75566e-05
1.74463e-08
8.08835e-09
7.75288e-05
2.89508e-08
2.08003e-08
7.75075e-05
3.94103e-08
2.27247e-08
7.7497e-05
4.33725e-08
1.69509e-08
7.75018e-05
3.61506e-08
9.82622e-09
7.75162e-05
2.82323e-08
3.2021e-09
7.75191e-05
3.76134e-08
-1.29788e-10
7.75057e-05
4.29616e-08
1.05413e-08
7.7503e-05
3.01065e-08
2.08423e-08
7.75137e-05
2.23059e-08
1.80135e-08
7.75045e-05
3.82773e-08
1.82877e-08
7.74721e-05
4.89201e-08
2.65143e-08
7.74512e-05
3.95697e-08
3.15122e-08
7.74555e-05
2.77744e-08
2.56413e-08
7.74848e-05
2.00294e-08
1.14027e-08
7.75029e-05
2.13175e-08
7.74996e-09
7.75243e-05
1.80193e-08
1.21355e-08
7.75435e-05
1.37221e-08
1.29698e-08
7.75676e-05
1.37077e-08
1.27752e-08
7.75847e-05
1.52872e-08
1.77363e-08
7.75967e-05
2.29011e-08
1.86974e-08
7.76049e-05
2.91742e-08
7.0475e-09
7.76191e-05
3.6958e-08
2.82584e-09
7.7617e-05
3.55791e-08
9.08787e-09
7.75977e-05
3.35772e-08
3.0588e-08
7.75742e-05
3.1121e-08
2.94025e-08
7.75601e-05
3.98293e-08
2.25861e-08
7.75406e-05
3.97452e-08
1.49045e-08
7.75482e-05
3.16781e-08
1.1584e-08
7.75522e-05
2.89672e-08
1.60152e-08
7.75466e-05
3.37818e-08
2.72769e-08
7.75083e-05
4.17372e-08
3.95536e-08
7.74793e-05
4.48768e-08
4.30938e-08
7.74526e-05
4.15286e-08
3.3999e-08
7.74502e-05
3.69557e-08
2.44201e-08
7.74359e-05
4.01504e-08
1.45904e-08
7.74234e-05
5.49732e-08
5.00356e-09
7.73961e-05
5.74729e-08
-3.71982e-09
7.73554e-05
7.90925e-08
4.22629e-09
7.72777e-05
9.43964e-08
1.13087e-08
7.71421e-05
1.78792e-07
1.92043e-08
7.68824e-05
2.58444e-07
2.02755e-08
7.64592e-05
4.81139e-07
2.4123e-08
7.56888e-05
7.62591e-07
2.29852e-08
7.44819e-05
1.30484e-06
5.02092e-08
7.23101e-05
2.19952e-06
5.80917e-08
6.90184e-05
3.52208e-06
1.30686e-07
6.31565e-05
6.15343e-06
2.1655e-07
9.92168e-06
3.2096e-07
5.38459e-05
8.09571e-05
4.26349e-09
4.51341e-09
8.09795e-05
5.2443e-09
1.08722e-08
8.10033e-05
2.12984e-08
1.71821e-08
8.10304e-05
2.42759e-08
1.7363e-08
8.11027e-05
2.32601e-09
9.64898e-09
8.11834e-05
-6.04263e-09
-1.13073e-09
8.12344e-05
2.65967e-10
-9.70294e-10
8.12938e-05
4.07991e-09
-4.45123e-09
8.13594e-05
1.22593e-08
-9.58912e-09
8.13878e-05
2.50656e-08
-2.83695e-09
8.1392e-05
2.3739e-08
1.20657e-08
8.14356e-05
8.03624e-09
1.89902e-08
8.15094e-05
4.02531e-09
1.61739e-08
8.15701e-05
5.54299e-09
1.49162e-08
8.16276e-05
-4.0163e-10
1.19442e-08
8.16828e-05
-1.01706e-09
9.78131e-09
8.17312e-05
5.95788e-09
5.50966e-09
8.17465e-05
1.52652e-08
1.17593e-08
8.17394e-05
1.54181e-08
2.59821e-08
8.17452e-05
9.78441e-09
2.45207e-08
8.17674e-05
1.79002e-08
1.88436e-08
8.18189e-05
9.81387e-09
7.53996e-09
8.18849e-05
6.90493e-09
2.43693e-10
8.19665e-05
4.37063e-10
-1.72576e-10
8.20529e-05
-6.82001e-09
3.27695e-09
8.21037e-05
3.99889e-09
1.38305e-08
8.21298e-05
1.28055e-08
2.43026e-08
8.21707e-05
1.65094e-08
1.69126e-08
8.21987e-05
3.0926e-08
9.43446e-09
8.221e-05
2.51148e-08
2.11378e-08
8.22291e-05
1.64405e-08
3.35187e-08
8.22695e-05
1.15564e-08
2.40571e-08
8.23336e-05
1.01752e-08
1.36639e-08
8.2398e-05
9.72945e-09
1.65776e-08
8.24652e-05
5.43137e-09
1.46673e-08
8.25205e-05
4.83169e-09
1.38604e-08
8.2565e-05
1.6305e-08
1.70301e-08
8.2605e-05
2.53772e-08
1.57431e-08
8.2627e-05
4.96474e-08
9.78844e-09
8.26187e-05
8.82404e-08
1.14694e-08
8.25638e-05
1.62683e-07
2.73392e-08
8.24833e-05
2.51274e-07
2.21455e-08
8.23457e-05
4.35386e-07
3.05837e-08
8.21032e-05
6.98379e-07
9.97634e-10
8.16431e-05
1.28507e-06
2.87625e-08
8.09121e-05
2.00368e-06
-5.58355e-09
7.95898e-05
3.62524e-06
6.58653e-08
7.72689e-05
5.90017e-06
4.88362e-08
7.39572e-05
9.79292e-06
1.75786e-07
1.5412e-05
2.48731e-07
6.89278e-05
8.11507e-05
-2.70083e-09
-2.11235e-09
8.11639e-05
4.1516e-09
6.6073e-09
8.12134e-05
-2.47761e-09
8.72965e-09
8.12829e-05
-1.57013e-08
3.7043e-09
8.13001e-05
-6.91398e-09
1.33235e-08
8.1298e-05
3.29064e-09
1.86128e-08
8.13307e-05
-7.03501e-09
7.39751e-09
8.13776e-05
-1.43121e-08
5.76614e-09
8.14473e-05
-2.34439e-08
5.04804e-09
8.15247e-05
-2.71801e-08
1.76389e-08
8.15832e-05
-1.91248e-08
2.49764e-08
8.16183e-05
-9.47536e-09
2.16459e-08
8.16599e-05
-1.24501e-08
1.23875e-08
8.17093e-05
-1.57298e-08
6.49657e-10
8.17303e-05
-8.6137e-09
1.20229e-08
8.17526e-05
-4.70311e-09
1.72713e-08
8.17934e-05
-5.11502e-09
3.29815e-09
8.18662e-05
-2.48144e-08
-7.28648e-09
8.19224e-05
-1.93417e-08
-3.91268e-10
8.19428e-05
-1.3621e-09
1.36941e-08
8.19806e-05
-2.18772e-09
1.80091e-08
8.20123e-05
-3.46951e-09
1.48108e-08
8.20637e-05
-1.45124e-08
9.23166e-09
8.21175e-05
-1.78438e-08
4.56579e-09
8.21273e-05
-8.73061e-10
8.48865e-09
8.21359e-05
7.30723e-09
3.95842e-09
8.21682e-05
-6.46944e-09
4.20116e-09
8.22297e-05
-1.29469e-08
2.24694e-10
8.2305e-05
-1.07915e-08
4.12088e-09
8.23537e-05
-9.16185e-09
1.8976e-08
8.23908e-05
-7.62308e-09
1.94725e-08
8.24335e-05
-1.36845e-08
1.68819e-08
8.24779e-05
-1.38302e-08
1.98198e-08
8.25033e-05
-5.50954e-09
2.80886e-08
8.24901e-05
1.17313e-08
3.20444e-08
8.24699e-05
2.05312e-08
2.26366e-08
8.24734e-05
1.84369e-08
1.39292e-08
8.25002e-05
1.34677e-08
8.17075e-09
8.25564e-05
1.61921e-08
1.95643e-10
8.26499e-05
3.75918e-08
-3.49157e-09
8.27505e-05
1.08914e-07
-9.98664e-09
8.28606e-05
2.06493e-07
-6.51402e-09
8.2933e-05
3.97147e-07
-1.95604e-08
8.29858e-05
6.91779e-07
6.67791e-09
8.2976e-05
1.27682e-06
-7.32394e-09
8.29409e-05
2.08423e-06
4.15135e-08
8.26329e-05
3.91484e-06
1.12018e-08
8.22123e-05
6.44155e-06
7.60397e-08
8.01528e-05
1.19443e-05
1.02823e-07
1.75217e-05
2.48567e-07
7.84816e-05
8.09873e-05
-2.80105e-09
-1.08736e-09
8.1037e-05
-2.41689e-08
1.1689e-09
8.10988e-05
-3.81837e-08
1.0794e-08
8.11297e-05
-3.42803e-08
1.67124e-08
8.11764e-05
-3.34426e-08
1.00001e-08
8.12426e-05
-3.31971e-08
-3.86642e-10
8.12885e-05
-2.9948e-08
2.74417e-09
8.13374e-05
-3.46707e-08
3.27634e-09
8.13748e-05
-3.62084e-08
1.02647e-08
8.13993e-05
-3.10825e-08
1.34296e-08
8.14496e-05
-4.13601e-08
1.20339e-08
8.15116e-05
-4.41919e-08
9.68745e-09
8.15448e-05
-2.55544e-08
6.27427e-09
8.1554e-05
-1.70792e-08
1.17847e-08
8.15584e-05
-1.38864e-08
2.13296e-08
8.15962e-05
-1.96831e-08
6.82602e-09
8.16566e-05
-2.68555e-08
6.55961e-09
8.16811e-05
-2.49805e-08
1.33733e-08
8.1705e-05
-2.62395e-08
1.17946e-08
8.1765e-05
-3.7519e-08
7.14634e-09
8.18435e-05
-4.3413e-08
4.96792e-10
8.19035e-05
-4.05168e-08
1.3982e-08
8.19156e-05
-2.1904e-08
2.86131e-08
8.19269e-05
-1.81704e-08
2.36192e-08
8.19879e-05
-2.83745e-08
2.11568e-08
8.20697e-05
-3.3071e-08
1.4177e-08
8.21178e-05
-2.86415e-08
1.23036e-08
8.21636e-05
-3.11397e-08
1.43944e-08
8.22214e-05
-3.88078e-08
5.58208e-09
8.22699e-05
-4.0428e-08
1.02612e-08
8.23121e-05
-3.56821e-08
1.88654e-08
8.23333e-05
-2.16427e-08
2.20396e-08
8.23355e-05
-1.15139e-08
2.47004e-08
8.23533e-05
-1.79605e-08
1.76854e-08
8.24225e-05
-3.31347e-08
2.56478e-09
8.25114e-05
-2.87372e-08
-1.07363e-08
8.25769e-05
-1.17587e-08
-1.26294e-08
8.26355e-05
-1.264e-08
-8.13157e-09
8.26737e-05
-6.5055e-09
7.96326e-09
8.27259e-05
-1.07899e-09
1.37523e-08
8.2828e-05
3.9819e-08
1.07969e-08
8.29666e-05
1.04049e-07
1.0002e-08
8.31507e-05
2.37547e-07
1.63916e-08
8.34476e-05
4.11681e-07
2.8271e-08
8.39441e-05
7.99601e-07
2.15991e-08
8.47619e-05
1.31839e-06
2.92085e-08
8.61255e-05
2.59303e-06
3.07858e-08
8.82739e-05
4.38106e-06
6.51763e-08
9.04813e-05
9.86242e-06
6.7274e-08
1.87368e-05
1.69744e-07
8.95833e-05
7.74764e-05
-3.13933e-09
7.74689e-05
5.81473e-09
7.74385e-05
1.53826e-08
7.74364e-05
1.25336e-08
7.74456e-05
4.82375e-09
7.74544e-05
3.94747e-09
7.74534e-05
1.37693e-08
7.74437e-05
1.82412e-08
7.74362e-05
2.10813e-08
7.744e-05
1.91517e-08
7.74333e-05
1.49232e-08
7.74139e-05
1.65883e-08
7.74214e-05
1.52757e-08
7.74455e-05
1.23296e-08
7.74676e-05
1.32949e-08
7.74828e-05
1.17412e-08
7.74906e-05
1.51077e-08
7.74957e-05
1.67663e-08
7.75012e-05
1.54614e-08
7.74953e-05
1.77953e-08
7.74717e-05
2.40325e-08
7.74512e-05
2.13934e-08
7.7461e-05
1.6928e-08
7.74807e-05
1.77771e-08
7.74944e-05
1.74029e-08
7.74934e-05
1.76518e-08
7.74851e-05
2.52024e-08
7.74813e-05
2.41892e-08
7.74707e-05
2.17948e-08
7.74509e-05
2.29621e-08
7.74463e-05
2.08325e-08
7.74692e-05
1.32869e-08
7.74996e-05
1.56265e-08
7.75146e-05
2.21547e-08
7.75077e-05
2.10724e-08
7.75104e-05
1.50563e-08
7.75385e-05
8.81597e-09
7.75664e-05
4.97563e-09
7.75898e-05
1.60875e-08
7.75909e-05
2.19205e-08
7.76395e-05
1.50306e-08
7.77693e-05
1.6489e-08
7.80261e-05
1.66723e-08
7.84533e-05
1.70483e-08
7.92643e-05
1.25969e-08
8.06025e-05
2.9599e-08
8.31983e-05
-1.8007e-09
8.76463e-05
6.60904e-08
9.75578e-05
-1.74833e-08
8.58967e-09
0.000116365
7.74424e-05
1.07757e-08
-2.01591e-09
7.74271e-05
2.34699e-08
-1.27458e-10
7.74369e-05
2.40133e-08
-1.30444e-08
7.74485e-05
2.91679e-08
-1.80387e-08
7.74523e-05
3.45317e-08
-2.13985e-08
7.74583e-05
2.73124e-08
-2.3434e-08
7.74474e-05
3.55503e-08
-2.14334e-08
7.74258e-05
4.33176e-08
-2.18593e-08
7.74298e-05
2.88626e-08
-2.23794e-08
7.74482e-05
1.85601e-08
-1.61092e-08
7.74476e-05
2.82095e-08
-9.60122e-09
7.74274e-05
4.69448e-08
-8.444e-09
7.7419e-05
4.60856e-08
-1.11024e-08
7.74474e-05
2.70156e-08
-2.39374e-08
7.74831e-05
1.95477e-08
-2.95465e-08
7.74937e-05
2.3889e-08
-2.3131e-08
7.74943e-05
2.03967e-08
-1.32809e-08
7.75046e-05
1.89673e-08
-1.70902e-08
7.7503e-05
2.92078e-08
-1.46891e-08
7.74932e-05
3.44006e-08
-1.17619e-08
7.74989e-05
2.57381e-08
-1.36815e-08
7.75187e-05
1.79629e-08
-1.91165e-08
7.7517e-05
2.34583e-08
-1.46766e-08
7.74757e-05
4.24165e-08
1.68107e-09
7.74399e-05
4.5687e-08
-8.02668e-10
7.74513e-05
3.16323e-08
-1.24582e-08
7.74788e-05
2.17846e-08
-1.98615e-08
7.74979e-05
2.9366e-08
-2.58473e-08
7.74916e-05
4.35573e-08
-2.23731e-08
7.74713e-05
5.36017e-08
-2.17132e-08
7.74479e-05
5.58679e-08
-1.64883e-08
7.74463e-05
4.67892e-08
-1.78319e-08
7.74677e-05
3.73722e-08
-1.93125e-08
7.75002e-05
3.43538e-08
-2.36675e-08
7.75277e-05
3.03781e-08
-2.39127e-08
7.75297e-05
3.68892e-08
-1.44518e-08
7.74946e-05
5.20655e-08
-2.40007e-09
7.74228e-05
8.46105e-08
-7.76932e-09
7.73547e-05
7.60212e-08
-1.17317e-08
7.72653e-05
1.02304e-07
-8.59449e-09
7.71545e-05
1.17145e-07
4.9699e-09
7.69904e-05
1.91331e-07
-8.09006e-09
7.67286e-05
2.90277e-07
-8.19358e-09
7.63443e-05
4.42181e-07
-3.37865e-08
7.56249e-05
7.69037e-07
-2.65894e-08
7.45264e-05
1.21562e-06
-6.69701e-08
7.24307e-05
2.19159e-06
-3.77854e-08
6.92176e-05
3.46369e-06
-1.19899e-07
6.34244e-05
6.1669e-06
-1.57096e-07
9.89227e-06
-2.5971e-07
5.41128e-05
8.11193e-05
-1.23786e-09
-7.44364e-10
8.11486e-05
2.88237e-09
2.22433e-09
8.11726e-05
1.62693e-08
8.9225e-10
8.12265e-05
1.21039e-08
-1.95166e-08
8.12961e-05
2.05393e-09
-2.7516e-08
8.1343e-05
2.1189e-09
-2.28269e-08
8.13922e-05
2.98538e-09
-1.7602e-08
8.14349e-05
1.04596e-08
-1.42654e-08
8.14514e-05
2.28016e-08
-2.00092e-08
8.14499e-05
2.86826e-08
-1.14483e-08
8.14728e-05
2.43147e-08
-6.99465e-09
8.15504e-05
-3.45174e-10
-1.12332e-08
8.16384e-05
-5.58653e-09
-2.02027e-08
8.17145e-05
-7.21653e-09
-2.6954e-08
8.1778e-05
-4.07202e-09
-2.78958e-08
8.18336e-05
-5.33606e-09
-1.65725e-08
8.18549e-05
4.80282e-09
-2.35205e-10
8.18607e-05
1.62124e-08
8.69609e-09
8.18932e-05
1.08684e-08
1.17904e-08
8.19348e-05
1.62673e-08
1.06332e-09
8.19602e-05
2.69635e-08
-7.73899e-09
8.19601e-05
2.99051e-08
-4.27435e-09
8.19566e-05
2.79471e-08
-7.34054e-10
8.19771e-05
1.93931e-08
2.30035e-09
8.20129e-05
1.23177e-08
9.02215e-10
8.20467e-05
3.60014e-09
8.04746e-09
8.20909e-05
-3.89393e-09
5.7312e-09
8.21403e-05
8.04523e-09
-1.11684e-08
8.2195e-05
1.9874e-08
-2.15143e-08
8.22656e-05
2.10536e-08
-1.69924e-08
8.23695e-05
9.6641e-09
-2.41633e-08
8.24637e-05
1.04577e-08
-3.38171e-08
8.25232e-05
1.79013e-08
-2.63629e-08
8.25698e-05
2.09733e-08
-1.66222e-08
8.26092e-05
1.6707e-08
-1.10081e-08
8.26457e-05
2.06192e-08
-6.43834e-09
8.26989e-05
2.69374e-08
-1.10385e-08
8.27701e-05
4.19212e-08
-1.2733e-08
8.28039e-05
6.5697e-08
-1.37009e-08
8.28259e-05
9.81491e-08
-6.34442e-09
8.28052e-05
1.63668e-07
1.47892e-09
8.2772e-05
2.40196e-07
6.44097e-09
8.26534e-05
4.37551e-07
1.98984e-09
8.24612e-05
6.34991e-07
3.83972e-10
8.19898e-05
1.27252e-06
-3.37257e-09
8.12728e-05
1.94833e-06
-2.12586e-08
7.9922e-05
3.62417e-06
-1.59188e-08
7.76629e-05
5.85149e-06
-7.9859e-08
7.43616e-05
9.76342e-06
-1.19426e-07
1.52312e-05
-2.91806e-07
6.95632e-05
8.12528e-05
-5.32626e-09
1.93269e-09
8.12706e-05
-6.17406e-09
-2.13272e-09
8.13159e-05
-4.6935e-09
-1.55795e-08
8.13509e-05
-4.77438e-09
-1.44912e-08
8.13887e-05
-1.03909e-08
-1.20048e-08
8.14377e-05
-9.44798e-09
-1.87663e-08
8.14729e-05
-4.01712e-09
-2.08941e-08
8.15234e-05
-1.40494e-08
-2.02125e-08
8.15893e-05
-1.98909e-08
-1.80752e-08
8.16706e-05
-2.38535e-08
-1.11478e-08
8.17521e-05
-2.5542e-08
-6.6548e-09
8.17991e-05
-2.13978e-08
-4.36351e-09
8.18301e-05
-2.05667e-08
-3.55301e-09
8.18453e-05
-1.26579e-08
-9.16448e-09
8.18671e-05
-2.32926e-09
-1.14519e-08
8.19033e-05
-9.96197e-09
-1.43314e-08
8.19377e-05
-1.1182e-08
-1.51335e-08
8.19781e-05
-9.76228e-09
-2.16505e-08
8.2012e-05
-1.10631e-08
-1.23719e-08
8.20544e-05
-4.80019e-09
-7.65258e-09
8.21188e-05
-6.95429e-09
-1.25142e-08
8.21692e-05
-1.59401e-09
-4.07925e-09
8.2185e-05
1.00556e-08
1.13333e-08
8.21756e-05
1.35639e-08
1.98098e-08
8.21489e-05
1.69456e-08
3.05252e-08
8.21147e-05
7.89182e-09
3.39448e-08
8.21045e-05
-4.92914e-09
1.54324e-08
8.21312e-05
-8.25975e-09
-1.02155e-08
8.21807e-05
-5.46173e-09
-2.00225e-08
8.22395e-05
-5.00141e-09
-1.37857e-08
8.23008e-05
-1.3409e-08
-1.87782e-08
8.23724e-05
-2.40916e-08
-2.01127e-08
8.24515e-05
-2.7777e-08
-1.36487e-08
8.2543e-05
-2.60748e-08
-1.6323e-08
8.26354e-05
-2.27079e-08
-2.0928e-08
8.27219e-05
-1.67359e-08
-2.65944e-08
8.28005e-05
-1.75713e-08
-2.01604e-08
8.28826e-05
-1.10266e-08
-2.09672e-08
8.2962e-05
1.38763e-08
-2.74026e-08
8.30141e-05
7.05575e-08
-2.79705e-08
8.30521e-05
1.3026e-07
-1.458e-08
8.30908e-05
2.33408e-07
-3.83689e-08
8.30819e-05
4.14506e-07
1.2338e-08
8.3084e-05
6.87217e-07
-4.76317e-08
8.30256e-05
1.27519e-06
4.83871e-08
8.30122e-05
2.06965e-06
-6.64081e-08
8.27057e-05
3.87557e-06
6.63246e-08
8.23547e-05
6.40331e-06
-1.24794e-07
8.03527e-05
1.18411e-05
2.71764e-08
1.73333e-05
-3.34109e-07
7.88333e-05
8.106e-05
-6.35014e-09
4.11717e-10
8.10809e-05
-1.98312e-08
-6.01217e-09
8.11361e-05
-3.96469e-08
-9.56855e-09
8.11958e-05
-3.66222e-08
-1.11044e-08
8.12499e-05
-3.71654e-08
-1.73015e-08
8.13032e-05
-3.71579e-08
-2.59904e-08
8.13586e-05
-3.35087e-08
-2.32244e-08
8.13867e-05
-2.50785e-08
-1.37853e-08
8.14335e-05
-3.01462e-08
-2.62106e-08
8.14969e-05
-4.00198e-08
-3.3854e-08
8.15524e-05
-4.78298e-08
-2.11676e-08
8.16097e-05
-5.33525e-08
-1.56399e-08
8.16357e-05
-3.25151e-08
-7.81329e-09
8.16674e-05
-2.53149e-08
-7.24814e-09
8.17186e-05
-2.45569e-08
-7.64029e-09
8.17379e-05
-2.4962e-08
2.54467e-09
8.17612e-05
-2.83406e-08
4.64257e-10
8.17903e-05
-1.73785e-08
-8.10616e-09
8.18108e-05
-1.49228e-08
-4.84034e-09
8.18408e-05
-2.02867e-08
-7.37764e-09
8.18784e-05
-2.91891e-08
-1.49093e-08
8.19415e-05
-3.73166e-08
-1.33602e-08
8.20138e-05
-3.11696e-08
-2.49934e-09
8.20802e-05
-2.72993e-08
-1.90688e-09
8.21532e-05
-3.12337e-08
-3.63272e-09
8.21876e-05
-2.4476e-08
1.21793e-08
8.22042e-05
-1.81565e-08
8.85409e-09
8.22362e-05
-1.89022e-08
-6.91769e-09
8.22851e-05
-2.64785e-08
-2.23674e-08
8.23546e-05
-3.70618e-08
-2.71723e-08
8.24241e-05
-4.52612e-08
-1.8768e-08
8.24706e-05
-4.42954e-08
-4.18606e-09
8.24978e-05
-3.40321e-08
3.76094e-09
8.25374e-05
-3.46318e-08
-1.3394e-08
8.25845e-05
-3.63661e-08
-3.08644e-08
8.26032e-05
-2.89664e-08
-1.71795e-08
8.2594e-05
-1.8231e-08
-2.787e-09
8.25908e-05
-1.47771e-08
-1.17852e-09
8.26302e-05
-1.42842e-08
-3.29825e-09
8.27188e-05
7.77819e-09
-1.20562e-08
8.28395e-05
4.93064e-08
-2.89459e-08
8.29994e-05
1.10476e-07
-2.70094e-08
8.32285e-05
2.27154e-07
-2.52913e-08
8.35661e-05
4.07765e-07
-2.98713e-08
8.4084e-05
8.04087e-07
-2.52598e-08
8.49027e-05
1.30628e-06
-2.61131e-08
8.6283e-05
2.56415e-06
-3.80573e-08
8.84804e-05
4.32649e-06
-5.54411e-08
9.06992e-05
9.80445e-06
-1.14857e-07
1.84004e-05
-1.44635e-07
8.99464e-05
7.74394e-05
3.81277e-09
7.74238e-05
1.53053e-09
7.74126e-05
-1.30937e-08
7.74095e-05
-2.10115e-08
7.74031e-05
-2.59241e-08
7.73956e-05
-2.56933e-08
7.73977e-05
-2.18733e-08
7.74058e-05
-1.48814e-08
7.74177e-05
-2.0961e-08
7.74173e-05
-2.04974e-08
7.73979e-05
-1.34454e-08
7.73712e-05
-1.01393e-08
7.73771e-05
-2.31179e-08
7.73955e-05
-3.13846e-08
7.74144e-05
-3.01346e-08
7.74209e-05
-1.97325e-08
7.74258e-05
-1.80745e-08
7.7446e-05
-2.08823e-08
7.74679e-05
-2.13248e-08
7.74883e-05
-2.28706e-08
7.74996e-05
-1.64897e-08
7.74959e-05
-1.22037e-08
7.74936e-05
-1.19497e-08
7.74982e-05
-1.4128e-08
7.74932e-05
-8.78982e-09
7.7494e-05
-7.63472e-09
7.75159e-05
-1.48717e-08
7.75462e-05
-2.50524e-08
7.75748e-05
-3.32436e-08
7.75879e-05
-2.71977e-08
7.75796e-05
-1.61894e-08
7.75624e-05
-1.37622e-08
7.75638e-05
-1.97669e-08
7.75782e-05
-2.68993e-08
7.75956e-05
-3.27106e-08
7.7609e-05
-2.73464e-08
7.7619e-05
-1.93403e-08
7.7621e-05
-1.18377e-08
7.76337e-05
-1.0884e-08
7.76891e-05
-2.57471e-08
7.77821e-05
-2.86571e-08
7.79278e-05
-1.87222e-08
7.81865e-05
-1.48556e-08
7.86286e-05
-1.72514e-08
7.94502e-05
-4.95858e-09
8.08122e-05
-2.60847e-08
8.33754e-05
-8.55029e-10
8.78562e-05
-8.82709e-08
9.76809e-05
-3.76616e-08
-2.16945e-07
0.000116307
7.73371e-05
1.01573e-08
-1.44668e-09
7.73229e-05
2.48705e-08
-1.08627e-08
7.73083e-05
3.29994e-08
-3.14501e-08
7.73032e-05
2.83859e-08
-4.1297e-08
7.73037e-05
3.1282e-08
-5.32072e-08
7.73039e-05
3.24778e-08
-5.61067e-08
7.72884e-05
3.84921e-08
-4.44802e-08
7.72567e-05
5.09243e-08
-4.10793e-08
7.72393e-05
3.77719e-08
-4.27167e-08
7.72549e-05
2.602e-08
-5.76734e-08
7.7278e-05
2.24897e-08
-5.52295e-08
7.72958e-05
2.81261e-08
-5.43402e-08
7.7304e-05
2.81512e-08
-4.74621e-08
7.73144e-05
2.14022e-08
-5.57401e-08
7.73144e-05
2.00016e-08
-4.95434e-08
7.73129e-05
3.04447e-08
-5.20796e-08
7.73199e-05
2.67858e-08
-4.70523e-08
7.73234e-05
3.1749e-08
-5.23981e-08
7.73121e-05
4.06854e-08
-4.40049e-08
7.73222e-05
3.13424e-08
-5.31913e-08
7.73367e-05
2.13826e-08
-4.95674e-08
7.73446e-05
2.37449e-08
-5.08049e-08
7.73389e-05
3.38761e-08
-4.28264e-08
7.73537e-05
3.70095e-08
-5.00918e-08
7.73574e-05
3.40988e-08
-3.86312e-08
7.73516e-05
4.64394e-08
-5.31278e-08
7.73261e-05
4.92725e-08
-4.36559e-08
7.73182e-05
3.72508e-08
-5.52076e-08
7.73024e-05
3.61227e-08
-4.26119e-08
7.72857e-05
4.42864e-08
-4.93312e-08
7.72802e-05
3.24126e-08
-4.33817e-08
7.73035e-05
1.98639e-08
-6.10417e-08
7.73144e-05
1.78571e-08
-4.80416e-08
7.73102e-05
3.64841e-08
-5.59769e-08
7.72878e-05
4.27258e-08
-4.4251e-08
7.7295e-05
3.84538e-08
-6.00319e-08
7.73014e-05
3.90372e-08
-4.78426e-08
7.72854e-05
5.9701e-08
-5.15529e-08
7.72398e-05
6.37223e-08
-2.97779e-08
7.7199e-05
8.4232e-08
-5.20154e-08
7.71256e-05
1.15239e-07
-3.69382e-08
7.70062e-05
1.81871e-07
-7.05554e-08
7.67608e-05
2.70365e-07
-3.31152e-08
7.63296e-05
4.80826e-07
-8.33978e-08
7.55561e-05
7.58471e-07
-1.16353e-08
7.43149e-05
1.29957e-06
-1.25276e-07
7.2119e-05
2.19783e-06
-3.97509e-08
6.88067e-05
3.51932e-06
-3.26937e-07
6.2942e-05
6.12746e-06
-4.19787e-07
9.9313e-06
-8.39466e-07
5.35904e-05
8.08625e-05
2.53547e-09
-2.4006e-09
8.0906e-05
8.24688e-10
-1.72399e-08
8.09703e-05
2.38155e-09
-3.28884e-08
8.09895e-05
2.09266e-08
-3.11974e-08
8.10052e-05
2.24045e-08
-3.44171e-08
8.10426e-05
4.89715e-09
-3.2609e-08
8.11045e-05
-3.75862e-09
-3.72157e-08
8.11761e-05
6.06357e-09
-4.10018e-08
8.11977e-05
2.53968e-08
-2.9272e-08
8.12153e-05
2.46807e-08
-2.7725e-08
8.12415e-05
1.88239e-08
-2.95365e-08
8.12838e-05
7.79979e-09
-3.31966e-08
8.13241e-05
3.99335e-09
-3.63104e-08
8.13401e-05
9.5108e-09
-3.10495e-08
8.13412e-05
1.68855e-08
-2.59124e-08
8.1372e-05
9.47743e-09
-2.63423e-08
8.14479e-05
-9.75984e-09
-3.95884e-08
8.15416e-05
-1.42868e-08
-3.90253e-08
8.16287e-05
-1.59135e-09
-3.29572e-08
8.16697e-05
1.56666e-08
-2.42937e-08
8.16877e-05
1.91184e-08
-2.3508e-08
8.17038e-05
2.5479e-08
-2.20574e-08
8.17357e-05
3.24831e-08
-3.12635e-08
8.17715e-05
2.66908e-08
-2.31719e-08
8.18154e-05
1.83728e-08
-2.73e-08
8.18914e-05
1.3923e-08
-3.53896e-08
8.19744e-05
1.35467e-08
-4.1589e-08
8.20181e-05
1.9939e-08
-3.75717e-08
8.20541e-05
1.79934e-08
-3.93501e-08
8.2096e-05
1.68741e-08
-3.15099e-08
8.21155e-05
1.67716e-08
-2.80197e-08
8.21067e-05
1.93179e-08
-2.43995e-08
8.20945e-05
3.02772e-08
-2.66151e-08
8.21132e-05
2.85887e-08
-2.74882e-08
8.21632e-05
2.21753e-08
-4.03895e-08
8.22308e-05
9.13314e-09
-4.47282e-08
8.23e-05
1.35619e-08
-5.4724e-08
8.23438e-05
4.01369e-08
-3.70623e-08
8.23707e-05
5.8576e-08
-3.54027e-08
8.23931e-05
8.59823e-08
-3.04514e-08
8.24157e-05
1.49729e-07
-5.56908e-08
8.24167e-05
2.17909e-07
-3.05292e-08
8.23488e-05
4.1963e-07
-7.94447e-08
8.21577e-05
6.72991e-07
-6.14411e-10
8.17314e-05
1.27351e-06
-9.21576e-08
8.09719e-05
2.00537e-06
3.24797e-08
7.96176e-05
3.6763e-06
-1.40077e-07
7.72308e-05
5.91313e-06
-8.6952e-08
7.38885e-05
9.77793e-06
-4.2753e-07
1.54042e-05
-6.40859e-07
6.87647e-05