/*--------------------------------*- C++ -*----------------------------------*\
| =========                 |                                                 |
| \\      /  F ield         | OpenFOAM: The Open Source CFD Toolbox           |
|  \\    /   O peration     | Version:  2.1.x                                 |
|   \\  /    A nd           | Web:      www.OpenFOAM.org                      |
|    \\/     M anipulation  |                                                 |
\*---------------------------------------------------------------------------*/
FoamFile
{
    version     2.0;
    format      ascii;
    class       volVectorField;
    location    "0.3";
    object      U;
}
// * * * * * * * * * * * * * * * * * * * * * * * * * * * * * * * * * * * * * //

dimensions      [0 1 -1 0 0 0 0];

internalField   nonuniform List<vector> 
3875
(
(4.61974 0.000182825 0.000375102)
(4.62117 0.00069792 0.000899396)
(4.61912 0.00107215 0.00114264)
(4.61356 0.00169101 0.0014982)
(4.60642 0.00266357 0.00226098)
(4.60048 0.00277054 0.00254204)
(4.59433 0.00298254 0.00268927)
(4.58824 0.00336775 0.00261402)
(4.58218 0.0034354 0.00269406)
(4.57614 0.00332461 0.00321276)
(4.56996 0.00319269 0.00337609)
(4.56382 0.00305683 0.00325393)
(4.55815 0.00355044 0.00288496)
(4.55184 0.00324228 0.00333364)
(4.54565 0.00355229 0.00335991)
(4.53931 0.00241636 0.00411925)
(4.53414 0.00320077 0.00346773)
(4.52828 0.00252135 0.00416815)
(4.52287 0.00345654 0.0034253)
(4.51677 0.00267338 0.00411159)
(4.51133 0.0033936 0.0036977)
(4.50525 0.00220818 0.00438736)
(4.49978 0.00425785 0.0031989)
(4.49327 0.00258515 0.00452261)
(4.48776 0.00428769 0.00340274)
(4.48127 0.00295254 0.00413595)
(4.47557 0.00491363 0.00279844)
(4.46874 0.00281694 0.00453292)
(4.46277 0.00522089 0.00276553)
(4.45609 0.0031571 0.00415132)
(4.45007 0.0053077 0.00337213)
(4.44239 0.00320957 0.00451748)
(4.43625 0.00544338 0.00298762)
(4.4292 0.00294095 0.004641)
(4.42338 0.0055603 0.00329613)
(4.41623 0.00259067 0.00479696)
(4.41024 0.00592234 0.00286058)
(4.40262 0.00339799 0.00476808)
(4.39536 0.00748743 0.00278287)
(4.38698 0.00394576 0.00474397)
(4.37805 0.00926531 0.00229954)
(4.36472 0.00529532 0.00616299)
(4.34686 0.0168632 0.00151302)
(4.32003 0.0110202 0.00764242)
(4.2708 0.0426441 -0.0014777)
(4.20179 0.0352981 0.0116604)
(4.07214 0.105453 -0.00158482)
(3.89277 0.110934 0.0186353)
(3.53806 0.262888 0.0117167)
(3.13124 0.3017 0.0443946)
(4.84571 0.000416931 0.000265541)
(4.84793 0.00063546 0.00057207)
(4.84731 0.00138584 0.00130377)
(4.84518 0.00238346 0.00137243)
(4.8452 0.0027932 0.00181148)
(4.84408 0.0025835 0.00215745)
(4.84535 0.00221198 0.00179587)
(4.84758 0.00234621 0.00171314)
(4.84936 0.00266811 0.00196173)
(4.85023 0.00265861 0.00194753)
(4.85125 0.00257923 0.00171507)
(4.85104 0.0024958 0.00186916)
(4.85162 0.00244224 0.00243217)
(4.85073 0.0025385 0.00256868)
(4.85082 0.00217055 0.0025366)
(4.84796 0.00166606 0.00275748)
(4.84597 0.00208563 0.00261384)
(4.84615 0.00244554 0.00221229)
(4.84637 0.00263102 0.00220361)
(4.84645 0.0026489 0.00243932)
(4.84528 0.0026504 0.00290785)
(4.84104 0.0025962 0.00314339)
(4.84196 0.00176069 0.00308213)
(4.84122 0.0018593 0.00299042)
(4.83952 0.00242803 0.00339381)
(4.83979 0.00279928 0.00291214)
(4.84023 0.00296241 0.00242707)
(4.83934 0.00310853 0.00256113)
(4.84055 0.00321307 0.00246135)
(4.84038 0.00312727 0.00222251)
(4.83964 0.00285481 0.00230492)
(4.83975 0.00279603 0.00254813)
(4.83922 0.00257644 0.00261247)
(4.83732 0.00228129 0.00282221)
(4.83647 0.00257863 0.00299617)
(4.83434 0.00268696 0.00264798)
(4.83276 0.00295872 0.00269488)
(4.83255 0.00367772 0.00196209)
(4.83397 0.00461772 0.00193106)
(4.83464 0.0064325 0.00127966)
(4.83108 0.00871318 0.00369576)
(4.82484 0.0136696 4.08401e-05)
(4.81719 0.0236829 0.00631525)
(4.80018 0.0371582 -0.00344721)
(4.77891 0.0688132 0.00890886)
(4.73478 0.105837 -0.0053276)
(4.65939 0.20476 0.0126545)
(4.53653 0.309282 -0.00212145)
(4.31637 0.571246 0.0245547)
(4.01969 0.822982 0.0200456)
(4.83843 -3.58356e-05 0.000234589)
(4.84322 0.00015844 0.000863855)
(4.84048 0.000392907 0.00135398)
(4.83878 0.000279253 0.00176684)
(4.83896 6.68116e-05 0.00143916)
(4.83995 0.000125526 0.00126691)
(4.83777 -0.000151609 0.00176686)
(4.83777 -0.000813266 0.00201323)
(4.83753 -0.000930481 0.00236862)
(4.83727 -0.000640977 0.00236622)
(4.8382 -0.000536531 0.00242393)
(4.83764 -0.000138107 0.00242629)
(4.83693 6.29596e-05 0.00227916)
(4.83689 8.48679e-05 0.00213957)
(4.83847 0.000395852 0.00215837)
(4.83651 0.000638657 0.00250103)
(4.83711 -0.000285017 0.00254585)
(4.83941 -0.000787938 0.00252196)
(4.84112 -0.000445175 0.00256417)
(4.84169 0.00049881 0.00246431)
(4.84271 0.000926137 0.00256975)
(4.84309 0.000684459 0.00267376)
(4.84191 0.000395121 0.00271498)
(4.83896 0.000561417 0.00265796)
(4.83985 -0.000229129 0.00252505)
(4.84116 -0.000461747 0.00204244)
(4.84365 -9.8994e-05 0.00164876)
(4.84505 9.18408e-05 0.00216012)
(4.84501 0.00018947 0.00258042)
(4.84531 0.000605818 0.00252051)
(4.84526 0.000758612 0.00219045)
(4.84686 0.000115498 0.00199229)
(4.84677 0.000115291 0.00233739)
(4.84554 0.000569012 0.00254355)
(4.84619 0.001385 0.00184446)
(4.84636 0.00168045 0.00140426)
(4.84782 0.00183765 0.00162519)
(4.84772 0.00199491 0.00207058)
(4.84838 0.00276889 0.00232756)
(4.84859 0.00520976 0.00271453)
(4.84651 0.00868296 0.00326925)
(4.84933 0.0177013 0.00361904)
(4.84388 0.0258173 0.00312343)
(4.85119 0.054704 0.00294406)
(4.83661 0.0787105 0.00205896)
(4.85358 0.161211 0.00238419)
(4.80865 0.241699 0.0020834)
(4.82853 0.47173 0.00617759)
(4.69434 0.69272 0.00678875)
(4.56102 1.34612 0.0270424)
(4.83454 -0.00042303 0.000424775)
(4.8354 -0.000532709 0.000789331)
(4.83702 -0.00158545 0.00164152)
(4.83513 -0.00211004 0.00165127)
(4.83544 -0.00266672 0.00151317)
(4.83568 -0.00251421 0.00171163)
(4.83739 -0.00237396 0.00176378)
(4.83805 -0.00261789 0.00176211)
(4.83642 -0.00291918 0.00196946)
(4.83669 -0.00294877 0.00201655)
(4.83424 -0.00288583 0.00223582)
(4.83362 -0.00263447 0.00232725)
(4.83313 -0.00228776 0.00224519)
(4.83519 -0.00241198 0.00166778)
(4.83555 -0.00225562 0.00152156)
(4.83691 -0.00186176 0.00216823)
(4.83583 -0.00214358 0.00287236)
(4.83099 -0.00292418 0.00299439)
(4.83002 -0.00266411 0.00221105)
(4.83126 -0.00239235 0.00224236)
(4.83117 -0.00234573 0.00282419)
(4.83165 -0.00203532 0.00287273)
(4.83158 -0.00159259 0.00265402)
(4.83244 -0.00158233 0.00267996)
(4.83156 -0.00195243 0.00291065)
(4.82723 -0.00237418 0.00363019)
(4.82738 -0.00256972 0.00324356)
(4.82425 -0.00253459 0.00311023)
(4.82453 -0.00219567 0.00282442)
(4.82631 -0.00217204 0.00253786)
(4.82781 -0.00229534 0.00246381)
(4.8274 -0.0022361 0.00279494)
(4.82612 -0.00177034 0.00252697)
(4.82694 -0.00134625 0.0021616)
(4.82861 -0.00124199 0.00248969)
(4.82968 -0.00139264 0.00281411)
(4.83184 -0.00100656 0.00278502)
(4.83355 -0.000550352 0.00266277)
(4.83433 0.000474261 0.00257865)
(4.83678 0.00312609 0.0026887)
(4.83855 0.006558 0.00301102)
(4.83797 0.0096155 0.00314831)
(4.84937 0.0237398 0.00305934)
(4.85351 0.0353658 0.00293787)
(4.88858 0.0766449 0.0025675)
(4.90583 0.110961 0.00384553)
(5.0043 0.238731 0.00415239)
(5.0568 0.337902 0.00625452)
(5.2593 0.821371 0.00900819)
(5.28762 1.11533 0.0158287)
(4.62396 -0.000106898 0.000401252)
(4.62554 -0.000776486 0.00104643)
(4.62277 -0.00124742 0.00114938)
(4.6169 -0.00210383 0.00179418)
(4.60893 -0.00253233 0.00232256)
(4.60471 -0.00273653 0.00260115)
(4.59715 -0.00316498 0.00263858)
(4.59303 -0.00300345 0.00269048)
(4.58548 -0.00304437 0.00304099)
(4.58079 -0.00306102 0.00342449)
(4.5728 -0.00295524 0.00321175)
(4.56867 -0.00306097 0.00285594)
(4.56125 -0.00337617 0.00320534)
(4.55654 -0.00339204 0.00373936)
(4.54842 -0.00346748 0.00359027)
(4.54428 -0.00327929 0.00334835)
(4.53748 -0.00266138 0.00361639)
(4.53408 -0.00223174 0.00351776)
(4.52722 -0.00244815 0.00365394)
(4.52276 -0.00276747 0.00405429)
(4.51496 -0.00302785 0.00365021)
(4.51093 -0.00323997 0.00320281)
(4.5036 -0.00351168 0.00346857)
(4.49964 -0.00355016 0.00352548)
(4.4917 -0.00339646 0.00402849)
(4.48754 -0.00335428 0.00388446)
(4.47989 -0.00353801 0.00381684)
(4.47599 -0.00295309 0.00386402)
(4.4682 -0.00367016 0.00400095)
(4.46327 -0.0044902 0.00324915)
(4.45489 -0.00486717 0.0036304)
(4.44975 -0.00377666 0.00425766)
(4.44198 -0.00359244 0.00465029)
(4.43719 -0.00375567 0.00432378)
(4.42986 -0.00434529 0.0036829)
(4.42563 -0.00417092 0.00359504)
(4.41783 -0.00451792 0.00408076)
(4.41455 -0.00385583 0.00389339)
(4.407 -0.00410529 0.00413328)
(4.40614 -0.00175482 0.00291617)
(4.40774 0.000181993 0.00262914)
(4.41259 0.00257693 0.00309466)
(4.41554 0.00596005 0.00295992)
(4.44838 0.0144133 0.00276799)
(4.46606 0.0289457 0.00237544)
(4.57944 0.0474317 0.00344094)
(4.63717 0.099879 0.00124874)
(5.01623 0.162045 0.00644679)
(5.19814 0.316025 0.00378352)
(6.36677 0.83799 0.00699295)
(4.84513 0.00010517 0.000172272)
(4.84986 0.000708456 0.00088929)
(4.84747 0.00095359 0.00119174)
(4.84497 0.00162927 0.00241866)
(4.843 0.00188201 0.00260809)
(4.84389 0.00226263 0.00256111)
(4.84392 0.002245 0.00217388)
(4.84564 0.00246371 0.00174552)
(4.84416 0.0027527 0.00198437)
(4.8441 0.00214192 0.00267821)
(4.8438 0.00169402 0.00270125)
(4.84536 0.00214106 0.00248033)
(4.84271 0.00279789 0.00252482)
(4.84147 0.00277444 0.00296629)
(4.83969 0.00220597 0.00336787)
(4.84238 0.00178611 0.00258308)
(4.84335 0.00180455 0.00204121)
(4.84437 0.00172389 0.00200314)
(4.84613 0.00155391 0.00197234)
(4.84702 0.00157908 0.00190304)
(4.84865 0.00176572 0.0021709)
(4.84978 0.0020113 0.00224016)
(4.84963 0.0022887 0.00188843)
(4.85085 0.00261665 0.00154665)
(4.85138 0.00274336 0.00167163)
(4.8512 0.00276184 0.00206624)
(4.84825 0.00258582 0.00226046)
(4.84878 0.00268057 0.00214383)
(4.84623 0.00267751 0.00194683)
(4.84602 0.00243025 0.00191687)
(4.84711 0.00226278 0.00219354)
(4.84749 0.00232797 0.00246648)
(4.84597 0.00279972 0.00293134)
(4.84259 0.00311793 0.00341517)
(4.84157 0.00304584 0.00316003)
(4.84073 0.00291828 0.00284753)
(4.84007 0.00306966 0.00190845)
(4.83939 0.0036678 0.000969088)
(4.83827 0.00322123 0.00048035)
(4.83609 0.00506683 0.0008106)
(4.83158 0.00355525 0.0010396)
(4.82698 0.00867629 0.0017189)
(4.81238 0.00603836 0.0012107)
(4.79479 0.021748 0.0023396)
(4.75173 0.0194732 0.00210994)
(4.70297 0.0490444 0.00507106)
(4.58241 0.0675594 0.00616166)
(4.45813 0.119452 0.0123702)
(4.13684 0.202711 0.0250001)
(3.87198 0.291704 0.041127)
(5.05752 0.000242589 0.000514233)
(5.06115 0.000559534 0.00114194)
(5.06441 0.00189585 0.00177814)
(5.06285 0.00242426 0.00168264)
(5.0656 0.00197525 0.00202716)
(5.07201 0.00119702 0.00165994)
(5.07624 0.00102089 0.0010362)
(5.07747 0.00158222 0.000769043)
(5.08407 0.00218026 0.000652688)
(5.08657 0.00222777 0.000730843)
(5.08729 0.00179114 0.000976157)
(5.08583 0.00176514 0.00194665)
(5.09322 0.0016999 0.0024942)
(5.09631 0.00159769 0.00242555)
(5.10021 0.00122363 0.00222502)
(5.10298 0.000714351 0.00218858)
(5.1071 0.000873434 0.00169256)
(5.10961 0.00124717 0.00119512)
(5.10885 0.000927581 0.000999249)
(5.10825 0.000520124 0.001055)
(5.10998 0.000722197 0.00188162)
(5.11124 0.000841543 0.001957)
(5.11587 0.000999728 0.0014777)
(5.11927 0.00121899 0.00155237)
(5.12686 0.000906643 0.00180486)
(5.12997 0.000850524 0.00166777)
(5.13309 0.00110885 0.0016388)
(5.13272 0.00178756 0.00165311)
(5.13897 0.00250353 0.00144959)
(5.13609 0.00195021 0.00145459)
(5.13952 0.00140057 0.00281789)
(5.13933 0.00146452 0.00243975)
(5.14475 0.00172821 0.0025245)
(5.14673 0.00177229 0.00264931)
(5.15275 0.00139554 0.00218009)
(5.15581 0.00114926 0.00189745)
(5.15903 0.00145775 0.00203811)
(5.16129 0.00234207 0.00161545)
(5.16424 0.00378499 0.00124105)
(5.16451 0.00529627 0.00101072)
(5.16239 0.00888222 0.00179225)
(5.15622 0.0127797 0.00176305)
(5.15316 0.0245029 0.00238738)
(5.13644 0.033192 0.000541058)
(5.12186 0.0712176 0.00186227)
(5.07677 0.0985165 0.000617073)
(5.0296 0.195946 0.00403338)
(4.91073 0.285332 0.00718553)
(4.75839 0.526661 0.0171947)
(4.49637 0.760085 0.0364316)
(5.06876 0.000117529 0.000133198)
(5.07419 0.000413844 0.00060405)
(5.07421 0.000687261 0.00177606)
(5.07936 0.000382052 0.00165484)
(5.08141 3.12026e-05 0.0015372)
(5.08085 -0.000262774 0.00193653)
(5.08113 -0.00034281 0.00175386)
(5.08488 -0.000513513 0.0015517)
(5.08729 -0.000641756 0.00176415)
(5.0938 -0.000252512 0.00246308)
(5.09713 0.000279576 0.00250499)
(5.10081 0.000308286 0.00229232)
(5.10103 0.000109463 0.00205143)
(5.10633 -0.000605503 0.00112354)
(5.10841 -0.000714587 0.00106214)
(5.10751 -0.000439988 0.0018259)
(5.11115 -3.78828e-06 0.00111551)
(5.11289 -0.000421129 0.000455956)
(5.12113 -0.000126914 0.000418016)
(5.11892 0.000201182 0.000522815)
(5.12312 0.000764071 0.00127464)
(5.12546 0.000412992 0.00121738)
(5.1259 -0.000299877 0.00124738)
(5.13152 -0.000774546 0.001188)
(5.13371 -0.000477831 0.000576482)
(5.13229 0.000490942 0.000131858)
(5.13474 0.000410779 0.000255842)
(5.13566 2.74677e-05 0.00103408)
(5.14317 0.000639326 0.0014722)
(5.14542 0.000815888 0.00172309)
(5.14862 0.000542837 0.0019847)
(5.15024 4.01616e-05 0.0022194)
(5.15396 -0.000335635 0.00260195)
(5.15584 -0.00025935 0.0027587)
(5.15707 0.000332926 0.00261599)
(5.15457 0.000708267 0.00214267)
(5.15379 0.00130999 0.0017428)
(5.15539 0.00125279 0.00130441)
(5.15718 0.00188829 0.000563298)
(5.16251 0.00387016 0.00158596)
(5.16818 0.00823516 0.000362452)
(5.17627 0.0157295 0.00277479)
(5.18084 0.0244148 -0.00168656)
(5.18631 0.0473184 0.00355119)
(5.18608 0.0729717 -0.0045203)
(5.18611 0.131728 0.00703788)
(5.17394 0.214675 -0.00411518)
(5.15843 0.409611 0.0114018)
(5.09723 0.64351 0.00459259)
(4.94829 1.18254 0.0352609)
(5.05926 -0.00019651 0.000259742)
(5.06311 -0.000614193 0.00066988)
(5.0691 -0.00167631 0.00167215)
(5.07063 -0.00199963 0.00184222)
(5.07021 -0.0018371 0.00167844)
(5.07647 -0.00111352 0.00139229)
(5.07915 -0.00124073 0.00143623)
(5.08151 -0.00176094 0.00161966)
(5.08566 -0.00212318 0.00189414)
(5.08661 -0.00216304 0.0020768)
(5.08804 -0.00235203 0.0023237)
(5.09297 -0.00221647 0.00190846)
(5.09627 -0.00154359 0.00129194)
(5.09657 -0.000944779 0.00133939)
(5.09831 -0.000558757 0.00167534)
(5.0962 -0.000523609 0.00109018)
(5.10264 -0.000912032 0.0015017)
(5.10531 -0.00157109 0.00170701)
(5.10475 -0.00154971 0.00186567)
(5.10753 -0.00119431 0.0012964)
(5.11335 -0.00149566 0.00138802)
(5.11758 -0.00127482 0.00179712)
(5.12058 -0.00102787 0.00191516)
(5.11855 -0.000976947 0.00151082)
(5.12162 -0.000683291 0.00252157)
(5.12737 -0.000683681 0.00227546)
(5.13192 -0.00103769 0.00138039)
(5.13208 -0.00141177 0.00159306)
(5.1383 -0.00195449 0.00130786)
(5.13976 -0.00197681 0.00125196)
(5.14367 -0.0015762 0.00152979)
(5.14578 -0.00116683 0.00175184)
(5.14608 -0.000631616 0.00186937)
(5.14543 -0.000637309 0.00121805)
(5.14844 -0.000555741 0.000813986)
(5.15465 0.000255896 0.000532959)
(5.15968 0.000474679 0.00010685)
(5.16225 6.27259e-05 0.000368464)
(5.16773 0.000380441 0.000874225)
(5.16618 0.000759333 0.00106378)
(5.17552 0.00487104 0.00183627)
(5.17831 0.00821745 0.00205542)
(5.19549 0.021558 0.00186774)
(5.20001 0.0323475 0.00244464)
(5.24068 0.0711214 0.00189648)
(5.25579 0.105587 0.00384811)
(5.36193 0.223872 0.00291005)
(5.39635 0.316625 0.00800306)
(5.62878 0.757208 0.00755754)
(5.60839 1.03671 0.0249852)
(4.83966 -0.000192016 0.000134422)
(4.84445 -0.000971626 0.000796792)
(4.84202 -0.00143703 0.0011558)
(4.83909 -0.00176688 0.00210099)
(4.84012 -0.00180773 0.00221599)
(4.84043 -0.00204284 0.00224053)
(4.84146 -0.00209274 0.00235278)
(4.84016 -0.0020795 0.00250238)
(4.84011 -0.00206678 0.00278925)
(4.83942 -0.00195715 0.00287106)
(4.84084 -0.00239404 0.00254044)
(4.83834 -0.00281769 0.00212788)
(4.83803 -0.00212597 0.00218885)
(4.83959 -0.00171551 0.00243848)
(4.84143 -0.00165376 0.00237143)
(4.84217 -0.00188215 0.00224456)
(4.84292 -0.00213574 0.00226149)
(4.84356 -0.00204068 0.00234742)
(4.84325 -0.0018253 0.00231904)
(4.84417 -0.00216359 0.00227919)
(4.84332 -0.00268987 0.00249292)
(4.84062 -0.00320808 0.00227369)
(4.84037 -0.00235186 0.00222329)
(4.8422 -0.00165384 0.00264367)
(4.84284 -0.00201065 0.00253019)
(4.84438 -0.00257778 0.00225752)
(4.84233 -0.00251075 0.00228641)
(4.84253 -0.00224394 0.00259265)
(4.84309 -0.00230332 0.0026133)
(4.84095 -0.0026096 0.00258097)
(4.84013 -0.00256413 0.00266556)
(4.84078 -0.00220146 0.00245966)
(4.84301 -0.00171689 0.00240474)
(4.8443 -0.00161022 0.00261737)
(4.84506 -0.00235327 0.00244105)
(4.84352 -0.00295934 0.00226492)
(4.8454 -0.00208839 0.00202616)
(4.84726 -0.00175797 0.00181762)
(4.84824 -0.00162641 0.00205159)
(4.85126 -0.00108961 0.00159313)
(4.84813 -0.000366813 0.00127881)
(4.85904 0.0027101 0.00192579)
(4.86335 0.00621169 0.00174418)
(4.89787 0.0134 0.00162383)
(4.91357 0.0264572 0.000915174)
(5.02173 0.0414821 0.00258806)
(5.07343 0.08913 -0.00131363)
(5.42382 0.14431 0.0074801)
(5.60981 0.296793 -0.000308341)
(6.65991 0.74692 0.00642988)
(4.83912 0.000573036 -0.000220557)
(4.83993 0.00104859 -4.68946e-05)
(4.8412 0.00134377 0.000464246)
(4.84096 0.0015039 0.000231117)
(4.84001 0.00189974 -0.00012202)
(4.84093 0.00172915 -0.000296862)
(4.84206 0.00178866 -0.0007259)
(4.83873 0.00242102 -0.00109062)
(4.83858 0.0019468 -0.000488297)
(4.84043 0.00144969 8.9762e-05)
(4.84117 0.00165933 0.000295308)
(4.83962 0.00249929 0.000335482)
(4.83849 0.00318288 0.000761066)
(4.83895 0.00251087 0.000507719)
(4.84207 0.00196956 -4.02559e-05)
(4.84364 0.0020745 -0.000277268)
(4.8432 0.00210557 -0.000107524)
(4.84306 0.00181353 -0.000105941)
(4.84497 0.00194653 -4.29413e-05)
(4.84328 0.00216291 -2.46788e-05)
(4.84275 0.00194252 0.000239645)
(4.84487 0.00154966 0.000108263)
(4.84539 0.00167762 -0.000239183)
(4.84412 0.00283368 -6.50594e-05)
(4.83993 0.00333486 0.000111465)
(4.83968 0.00258862 0.000717282)
(4.84201 0.00236355 0.000512716)
(4.84318 0.00245649 1.81109e-05)
(4.84418 0.00275074 -0.000138958)
(4.84196 0.00302553 -0.000253663)
(4.84166 0.00350915 0.000193549)
(4.83963 0.00328186 0.000629741)
(4.84129 0.002709 0.00101432)
(4.84198 0.00249284 0.000927842)
(4.84519 0.0023015 0.000505434)
(4.84629 0.00271461 0.000474434)
(4.84505 0.00279981 0.000830069)
(4.84118 0.00501916 0.000397706)
(4.83637 0.00355714 -0.000554939)
(4.83236 0.00647027 -0.000196407)
(4.82481 0.00369907 0.000655556)
(4.81779 0.00974113 0.000545473)
(4.80152 0.00841241 0.000531171)
(4.78749 0.020638 4.27701e-05)
(4.74365 0.0212986 -0.000306516)
(4.70522 0.0463157 -0.000711474)
(4.58637 0.0661939 0.000151234)
(4.466 0.117687 0.000108603)
(4.15213 0.199865 0.00188604)
(3.88876 0.28889 0.00179347)
(5.06698 0.000358318 0.000176516)
(5.07206 0.000963191 0.000406636)
(5.07476 0.0015208 0.000745562)
(5.07324 0.00159374 0.000114636)
(5.07965 0.00149159 -0.000756703)
(5.08267 0.00148899 -0.00105821)
(5.085 0.00158503 -0.000887598)
(5.08866 0.00201723 -0.00083941)
(5.09084 0.00206454 -0.00095631)
(5.09103 0.0019018 -0.000637536)
(5.09004 0.00193618 0.000146551)
(5.09344 0.00175626 0.000469108)
(5.10028 0.00115641 -9.45976e-05)
(5.10501 0.000546103 -0.000570555)
(5.10943 0.00037848 -0.000738994)
(5.11249 0.000551107 -0.000588255)
(5.11715 0.000820003 4.54865e-06)
(5.11477 0.00102951 0.000449867)
(5.11689 0.00133994 0.0015165)
(5.11997 0.00168754 0.0013142)
(5.12212 0.00165482 0.000325699)
(5.12325 0.00152107 -0.000134932)
(5.12173 0.00156821 -3.50657e-05)
(5.12235 0.00189859 0.00014545)
(5.12495 0.0020522 -0.000151661)
(5.12661 0.00131594 0.000444815)
(5.12923 0.000387048 0.00135218)
(5.13246 0.00123909 0.000527452)
(5.135 0.00225821 -0.000580692)
(5.13887 0.0027759 0.000275425)
(5.14413 0.00246361 0.000322328)
(5.15254 0.00220089 -0.00034313)
(5.15568 0.00220874 -0.000514476)
(5.15947 0.00217516 -0.000439877)
(5.16174 0.00190763 0.00010463)
(5.16493 0.00193265 0.000333475)
(5.16519 0.00272754 0.000341778)
(5.17192 0.0043935 0.000173312)
(5.17468 0.00548371 3.76875e-05)
(5.17559 0.00592688 3.66396e-05)
(5.17692 0.0104304 0.00106572)
(5.17283 0.0126804 0.00126647)
(5.17204 0.0256076 0.00173481)
(5.1571 0.0303828 9.30921e-06)
(5.14507 0.0702274 0.0016192)
(5.09817 0.0933432 -0.00189493)
(5.05156 0.19564 0.00228061)
(4.933 0.281757 -0.0023526)
(4.78141 0.528466 0.00231391)
(4.52821 0.750883 -0.00294097)
(5.07658 -0.000317828 4.58493e-05)
(5.07872 -0.000462125 0.000213176)
(5.08272 0.000228264 -0.000367148)
(5.08413 0.000474492 -0.000651112)
(5.08461 -1.76911e-05 -7.62676e-05)
(5.08882 -0.000245106 6.58969e-05)
(5.09096 7.8841e-05 -0.00031328)
(5.09246 -0.000175746 -0.000481741)
(5.09798 -0.000107345 -0.000501091)
(5.10064 0.000178569 -5.63159e-05)
(5.1083 0.00013805 0.000510787)
(5.11095 -0.000426156 0.000598409)
(5.1138 -0.000626963 0.000254415)
(5.11491 -0.000580279 -0.000190528)
(5.11607 -0.000143373 0.000277385)
(5.11738 -0.000698371 0.00027189)
(5.12041 -0.000326795 -0.00049474)
(5.1216 0.00036889 -0.0010874)
(5.12587 4.79856e-05 -0.000482761)
(5.12522 0.000310347 0.000747828)
(5.13163 0.00080453 0.000381756)
(5.13355 0.00122008 0.000385741)
(5.13747 0.00144387 0.000869687)
(5.13572 0.00104851 0.000833167)
(5.13604 0.000555088 0.0013635)
(5.13301 0.000188591 0.00113981)
(5.13097 -0.000405356 0.000684916)
(5.13209 -0.000265196 -0.000397345)
(5.13437 0.000356891 -0.000523431)
(5.13807 0.000511958 0.000332806)
(5.1419 -0.00033429 -1.4646e-05)
(5.14591 -0.0005571 -0.000189098)
(5.15081 -0.000446006 -0.000106952)
(5.15517 -0.000279863 6.43131e-05)
(5.16281 -0.000441317 0.000109802)
(5.16712 0.000195018 -0.000560768)
(5.17281 0.000504143 -0.000665949)
(5.17712 0.000436792 -0.000581703)
(5.1831 0.00208434 -0.000803648)
(5.1876 0.00587637 -0.00166108)
(5.18865 0.00875633 -0.000740167)
(5.1933 0.0158387 -0.00276621)
(5.19288 0.0242268 -7.26298e-05)
(5.19272 0.0429275 -0.00237416)
(5.19108 0.0712782 0.00240746)
(5.18873 0.129748 -0.00172271)
(5.17923 0.215358 0.00405417)
(5.16371 0.406414 -0.00248494)
(5.10787 0.639455 0.00573631)
(4.96285 1.17019 -0.00427681)
(5.06464 -0.000408761 -6.15241e-05)
(5.06641 -0.000767738 -0.000212093)
(5.07131 -0.0015311 -5.93057e-05)
(5.07309 -0.00184178 6.54164e-05)
(5.07666 -0.00187937 -0.000223011)
(5.07911 -0.00188304 -0.000862496)
(5.08352 -0.00159981 -0.000850408)
(5.0865 -0.001483 -0.000415263)
(5.08656 -0.00176999 -0.000443183)
(5.09272 -0.0024587 -0.000944511)
(5.09448 -0.00279278 -0.000835783)
(5.09941 -0.0028587 -0.000382745)
(5.10231 -0.00211507 -0.000208873)
(5.10166 -0.00138401 7.13814e-05)
(5.10689 -0.000901409 0.000490041)
(5.10847 -0.000959009 0.000437373)
(5.10814 -0.00125521 0.000373537)
(5.11231 -0.000882023 4.43722e-05)
(5.11186 -0.000750195 -0.000102727)
(5.11355 -0.000629866 -4.14947e-05)
(5.11718 -0.00113687 -0.000633207)
(5.11765 -0.00137405 -0.000166779)
(5.12501 -0.000467856 0.00091651)
(5.12626 -6.81694e-05 0.00109408)
(5.13379 -0.000153493 0.000771974)
(5.13584 -8.52684e-05 0.000677993)
(5.13737 -0.000442948 0.000666226)
(5.13802 -0.00068922 0.000377788)
(5.14167 -0.000973233 -0.000513833)
(5.1436 -0.0015503 -0.000557242)
(5.15065 -0.00215817 0.00025507)
(5.15294 -0.0024249 0.000764517)
(5.15608 -0.00236105 0.00105234)
(5.15562 -0.00240015 0.000436288)
(5.16132 -0.00212633 -0.000986582)
(5.16238 -0.00183922 -0.00113726)
(5.16334 -0.00159606 -0.000681642)
(5.16094 -0.000976803 -0.000595745)
(5.16281 -0.000269807 -8.53577e-06)
(5.16607 0.00178827 0.000262441)
(5.17499 0.00596615 -0.000602767)
(5.18018 0.0100655 -0.000821302)
(5.19802 0.0220123 -0.000429487)
(5.20681 0.0347933 -7.10816e-05)
(5.24909 0.0726158 -0.000144232)
(5.26452 0.105664 9.62841e-05)
(5.37033 0.219682 -0.000241417)
(5.40834 0.314747 0.000220411)
(5.6418 0.748627 -0.00143186)
(5.62381 1.02623 0.00087974)
(4.83904 -0.00025966 -6.61625e-08)
(4.83971 -0.000545023 0.00031707)
(4.8408 -0.00165312 0.000148957)
(4.83828 -0.00185352 -0.000160503)
(4.83814 -0.00207259 -0.000934968)
(4.83684 -0.0022407 -0.00107871)
(4.83724 -0.00202009 -0.000487515)
(4.83759 -0.00177059 4.88727e-05)
(4.83804 -0.00193246 0.000113295)
(4.83909 -0.00233716 -5.32329e-05)
(4.83872 -0.00252512 -2.15981e-05)
(4.83564 -0.00315975 0.0003928)
(4.83573 -0.00236027 -0.000246596)
(4.83627 -0.00191215 -0.000827966)
(4.83828 -0.00210955 -0.000652377)
(4.83895 -0.00219393 -0.000307882)
(4.83825 -0.00211881 -4.33346e-05)
(4.84 -0.00183689 -0.000237313)
(4.84093 -0.001725 -0.000319227)
(4.84218 -0.00190737 -0.000164262)
(4.84414 -0.00230128 0.000132915)
(4.84362 -0.00266027 0.000446271)
(4.84287 -0.00271057 0.000338657)
(4.84363 -0.00255239 0.000150354)
(4.84424 -0.00266691 0.0003223)
(4.84236 -0.00278439 0.000215775)
(4.84419 -0.00218884 0.000404019)
(4.84525 -0.00185732 7.45526e-05)
(4.84814 -0.0022979 -0.000382072)
(4.84862 -0.0026052 -0.000132336)
(4.84989 -0.00281654 0.000122866)
(4.84792 -0.00301986 -0.000273919)
(4.8472 -0.0024174 -0.000334214)
(4.84802 -0.00218853 -0.000265854)
(4.8493 -0.00238559 -0.000394536)
(4.85033 -0.00222373 -0.000488759)
(4.85087 -0.00166463 -0.000485051)
(4.85224 -0.00143215 -0.000218582)
(4.84991 -0.00189798 0.000184895)
(4.85509 -0.00112647 -9.42738e-05)
(4.85625 -0.000408111 -0.000294672)
(4.86881 0.00263963 1.61997e-05)
(4.8733 0.00585278 7.75845e-05)
(4.9083 0.0121024 5.85e-05)
(4.92491 0.0258811 0.000347191)
(5.0342 0.0399364 0.000278274)
(5.08573 0.0886421 -3.5314e-05)
(5.43256 0.140872 -0.000496701)
(5.63024 0.299272 -0.00174475)
(6.65173 0.72955 -0.00670111)
(4.8325 0.000475861 -0.000113262)
(4.83347 0.000825599 5.06061e-05)
(4.83436 0.00151946 -0.00165463)
(4.83187 0.00161458 -0.00219423)
(4.83059 0.00160707 -0.00313167)
(4.83171 0.00171448 -0.00325104)
(4.83182 0.00207312 -0.00285844)
(4.82922 0.0028915 -0.00246678)
(4.82747 0.00258099 -0.00261174)
(4.82733 0.00160229 -0.00276815)
(4.82964 0.0014299 -0.00252747)
(4.83028 0.0017578 -0.00228421)
(4.83152 0.00196295 -0.00246943)
(4.83168 0.00189265 -0.00303102)
(4.83277 0.0015928 -0.00324993)
(4.83148 0.00180235 -0.0028385)
(4.83224 0.00211136 -0.00232384)
(4.83308 0.00250703 -0.00225256)
(4.83213 0.00288522 -0.0020655)
(4.83207 0.0025438 -0.00195878)
(4.8329 0.00191125 -0.00215505)
(4.83487 0.00184992 -0.00224528)
(4.83284 0.00231604 -0.00222675)
(4.83427 0.00240694 -0.00126987)
(4.83472 0.00239823 -0.00107645)
(4.83517 0.00276081 -0.00179194)
(4.834 0.00316658 -0.00230202)
(4.83201 0.00278337 -0.00268972)
(4.83245 0.00248782 -0.00250396)
(4.83041 0.00264306 -0.00229113)
(4.82963 0.00231559 -0.00239969)
(4.83097 0.00185212 -0.00258465)
(4.83191 0.00160021 -0.00273864)
(4.8327 0.00220079 -0.00290406)
(4.8308 0.0027804 -0.00291457)
(4.83023 0.00294149 -0.00249914)
(4.83136 0.00310596 -0.00189973)
(4.83168 0.00353597 -0.00174176)
(4.82841 0.00347018 -0.00117562)
(4.82577 0.00489524 -0.0012396)
(4.82244 0.00462785 -0.000705316)
(4.81788 0.00974039 -0.00169787)
(4.80475 0.00683762 -0.00106883)
(4.78703 0.0227417 -0.00337179)
(4.74376 0.0192101 -0.00151866)
(4.69343 0.04949 -0.00518022)
(4.5711 0.0679732 -0.00383776)
(4.44553 0.119416 -0.0111618)
(4.1234 0.202801 -0.020423)
(3.85875 0.290363 -0.0366992)
(5.05151 0.000480836 -0.000218948)
(5.05522 0.000953754 -0.000473064)
(5.06092 0.0014187 -0.00139159)
(5.06269 0.0018785 -0.00207878)
(5.06057 0.00211678 -0.00234955)
(5.06478 0.00159894 -0.002029)
(5.06519 0.00148467 -0.00197308)
(5.0726 0.00219333 -0.00195865)
(5.07511 0.00252453 -0.00185056)
(5.07435 0.00229629 -0.00152652)
(5.07755 0.00173728 -0.00136314)
(5.07749 0.0015426 -0.00198227)
(5.08264 0.00111878 -0.00234954)
(5.08357 0.000944835 -0.00224186)
(5.08413 0.00116892 -0.00197058)
(5.08331 0.00146497 -0.00139826)
(5.0884 0.000293795 -0.00121227)
(5.09194 0.000390713 -0.000509442)
(5.10054 0.00140349 -0.000411674)
(5.10368 0.00185048 -0.000498301)
(5.10514 0.00163632 -0.00062669)
(5.10595 0.00169116 -0.000740802)
(5.10672 0.00227203 -0.00107586)
(5.11007 0.0023275 -0.000794453)
(5.11133 0.00182514 -0.000828492)
(5.1151 0.00205363 -0.000704929)
(5.12165 0.00218862 -0.00133042)
(5.12611 0.00188036 -0.00176921)
(5.12541 0.00164339 -0.00197168)
(5.13078 0.00218483 -0.00173315)
(5.13189 0.00196578 -0.00200718)
(5.13268 0.00139205 -0.00234085)
(5.13072 0.00137403 -0.00195235)
(5.13081 0.00238988 -0.00145469)
(5.13335 0.00246688 -0.00186502)
(5.13742 0.00163169 -0.00188873)
(5.14088 0.0015006 -0.00238314)
(5.14653 0.00335955 -0.00175647)
(5.14691 0.0042965 -0.00170414)
(5.14854 0.0053202 -0.00122349)
(5.15033 0.00873649 -0.00112739)
(5.1501 0.0111265 -0.000992433)
(5.15143 0.0252561 -0.00185525)
(5.13851 0.0314904 -0.00054269)
(5.1269 0.0706472 -0.00194058)
(5.08184 0.0965696 -0.000274002)
(5.03265 0.195141 -0.0028054)
(4.91029 0.285218 -0.00587306)
(4.75585 0.524218 -0.0137896)
(4.48848 0.76147 -0.0343258)
(5.06667 -0.000129321 -4.37104e-05)
(5.07113 -0.000270635 -0.000445627)
(5.07301 -0.000166187 -0.00155521)
(5.07094 0.000500494 -0.00166259)
(5.07675 0.000304157 -0.00197284)
(5.07957 -0.000177865 -0.00235351)
(5.08098 -0.000329396 -0.00261365)
(5.0812 -0.000214989 -0.00255183)
(5.08613 -0.000293478 -0.00196632)
(5.08872 -0.000400439 -0.00144773)
(5.096 -0.000635304 -0.00161535)
(5.09783 -0.000552386 -0.00169685)
(5.10242 -0.000251379 -0.00156303)
(5.10429 0.000206131 -0.00161406)
(5.1073 0.000846997 -0.00158822)
(5.10928 0.000898455 -0.00133771)
(5.10686 3.77038e-05 -0.00104829)
(5.10685 -0.000893975 -0.00173648)
(5.10832 -0.00126242 -0.00163003)
(5.11379 -0.000800879 -0.00142764)
(5.11842 6.58467e-05 -0.00117752)
(5.11993 0.000733743 -0.00090314)
(5.12492 0.00115527 -0.000330803)
(5.12955 0.0009672 0.000674253)
(5.13255 0.000531611 0.000726852)
(5.13887 0.000385202 0.00116768)
(5.14174 0.000567005 0.000627311)
(5.14455 0.000753769 -0.000624008)
(5.14467 0.000774286 -0.00168421)
(5.14786 0.000276029 -0.00159579)
(5.15204 7.44282e-05 -0.00178528)
(5.15238 0.000376192 -0.00211963)
(5.15674 0.00138281 -0.00176055)
(5.15912 0.000228232 -0.0018536)
(5.16639 -0.000501943 -0.00212533)
(5.16814 -0.000199591 -0.00225896)
(5.16825 0.000151288 -0.00231044)
(5.17402 0.001527 -0.00228611)
(5.17609 0.00276943 -0.00223516)
(5.17697 0.00458623 -0.0021056)
(5.18083 0.00836945 -0.00144275)
(5.18372 0.0146394 -0.00240119)
(5.18306 0.0227062 0.00164792)
(5.18546 0.0463305 -0.00393967)